/*--------------------------------*- C++ -*----------------------------------*\
  =========                 |
  \\      /  F ield         | OpenFOAM: The Open Source CFD Toolbox
   \\    /   O peration     | Website:  https://openfoam.org
    \\  /    A nd           | Version:  12
     \\/     M anipulation  |
\*---------------------------------------------------------------------------*/
FoamFile
{
    format      ascii;
    class       volScalarField;
    location    "0";
    object      thickness;
}
// * * * * * * * * * * * * * * * * * * * * * * * * * * * * * * * * * * * * * //

dimensions      [0 0 0 0 0 0 0];

internalField   uniform 0;

boundaryField
{
    inlet
    {
        type            fixedValue;
        value           uniform 0;
    }
    outlet
    {
        type            fixedValue;
        value           uniform 0;
    }
    walls
    {
        type            fixedValue;
        value           uniform 0;
    }
    rocket
    {
        type            fixedValue;
        value           nonuniform List<scalar> 
12247
(
0
0
0
0
0
0
0
0
0
0
0
0
0
0
0
0
0
0
0
0
0
0
0
0
0
0
0
0
0
0
0
0
0
0
0
0
0
0
0
0
0
0
0
0
0
0
0
0
0
0
0
0
0
0
0
0
0
0
0
0
0
0
0
0
0
0
0
0
0
0
0
0
0
0
0
0
0
0
0
0
0
0
0
0
0
0
0
0
0
0
0
0
0
0
0
0
0
0
0
0
0
0
0
0
0
0
0
0
0
0
0
0
0
0
0
0
0
0
0
0
0
0
0
0
0
0
0
0
0
0
0
0
0
0
0
0
0
0
0
0
0
0
0
0
0
0
0
0
0
0
0
0
0
0
0
0
0
0
0
0
0
0
0
0
0
0
0
0
0
0
0
0
0
0
0
0
0
0
0
0
0
0
0
0
0
0
0
0
0
0
0
0
0
0
0
0
0
0
0
0
0
0
0
0
0
0
0
0
0
0
0
0
0
0
0
0
0
0
0
0
0
0
0
0
0
0
0
0
0
0
0
0
0
0
0
0
0
0
0
0
0
0
0
0
0
0
0
0
0
0
0
0
0
0
0
0
0
0
0
0
0
0
0
0
0
0
0
0
0
0
0
0
0
0
0
0
0
0
0
0
0
0
0
0
0
0
0
0
0
0
0
0
0
0
0
0
0
0
0
0
0
0
0
0
0
0
0
0
0
0
0
0
0
0
0
0
0
0
0
0
0
0
0
0
0
0
0
0
0
0
0
0
0
0
0
0
0
0
0
0
0
0
0
0
0
0
0
0
0
0
0
0
0
0
0
0
0
0
0
0
0
0
0
0
0
0
0
0
0
0
0
0
0
0
0
0
0
0
0
0
0
0
0
0
0
0
0
0
0
0
0
0
0
0
0
0
0
0
0
0
0
0
0
0
0
0
0
0
0
0
0
0
0
0
0
0
0
0
0
0
0
0
0
0
0
0
0
0
0
0
0
0
0
0
0
0
0
0
0
0
0
0
0
0
0
0
0
0
0
0
0
0
0
0
0
0
0
0
0
0
0
0
0
0
0
0
0
0
0
0
0
0
0
0
0
0
0
0
0
0
0
0
0
0
0
0
0
0
0
0
0
0
0
0
0
0
0
0
0
0
0
0
0
0
0
0
0
0
0
0
0
0
0
0
0
0
0
0
0
0
0
0
0
0
0
0
0
0
0
0
0
0
0
0
0
0
0
0
0
0
0
0
0
0
0
0
0
0
0
0
0
0
0
0
0
0
0
0
0
0
0
0
0
0
0
0
0
0
0
0
0
0
0
0
0
0
0
0
0
0
0
0
0
0
0
0
0
0
0
0
0
0
0
0
0
0
0
0
0
0
0
0
0
0
0
0
0
0
0
0
0
0
0
0
0
0
0
0
0
0
0
0
0
0
0
0
0
0
0
0
0
0
0
0
0
0
0
0
0
0
0
0
0
0
0
0
0
0
0
0
0
0
0
0
0
0
0
0
0
0
0
0
0
0
0
0
0
0
0
0
0
0
0
0
0
0
0
0
0
0
0
0
0
0
0
0
0
0
0
0
0
0
0
0
0
0
0
0
0
0
0
0
0
0
0
0
0
0
0
0
0
0
0
0
0
0
0
0
0
0
0
0
0
0
0
0
0
0
0
0
0
0
0
0
0
0
0
0
0
0
0
0
0
0
0
0
0
0
0
0
0
0
0
0
0
0
0
0
0
0
0
0
0
0
0
0
0
0
0
0
0
0
0
0
0
0
0
0
0
0
0
0
0
0
0
0
0
0
0
0
0
0
0
0
0
0
0
0
0
0
0
0
0
0
0
0
0
0
0
0
0
0
0
0
0
0
0
0
0
0
0
0
0
0
0
0
0
0
0
0
0
0
0
0
0
0
0
0
0
0
0
0
0
0
0
0
0
0
0
0
0
0
0
0
0
0
0
0
0
0
0
0
0
0
0
0
0
0
0
0
0
0
0
0
0
0
0
0
0
0
0
0
0
0
0
0
0
0
0
0
0
0
0
0
0
0
0
0
0
0
0
0
0
0
0
0
0
0
0
0
0
0
0
0
0
0
0
0
0
0
0
0
0
0
0
0
0
0
0
0
0
0
0
0
0
0
0
0
0
0
0
0
0
0
0
0
0
0
0
0
0
0
0
0
0
0
0
0
0
0
0
0
0
0
0
0
0
0
0
0
0
0
0
0
0
0
0
0
0
0
0
0
0
0
0
0
0
0
0
0
0
0
0
0
0
0
0
0
0
0
0
0
0
0
0
0
0
0
0
0
0
0
0
0
0
0
0
0
0
0
0
0
0
0
0
0
0
0
0
0
0
0
0
0
0
0
0
0
0
0
0
0
0
0
0
0
0
0
0
0
0
0
0
0
0
0
0
0
0
0
0
0
0
0
0
0
0
0
0
0
0
0
0
0
0
0
0
0
0
0
0
0
0
0
0
0
0
0
0
0
0
0
0
0
0
0
0
0
0
0
0
0
0
0
0
0
0
0
0
0
0
0
0
0
0
0
0
0
0
0
0
0
0
0
0
0
0
0
0
0
0
0
0
0
0
0
0
0
0
0
0
0
0
0
0
0
0
0
0
0
0
0
0
0
0
0
0
0
0
0
0
0
0
0
0
0
0
0
0
0
0
0
0
0
0
0
0
0
0
0
0
0
0
0
0
0
0
0
0
0
0
0
0
0
0
0
0
0
0
0
0
0
0
0
0
0
0
0
0
0
0
0
0
0
0
0
0
0
0
0
0
0
0
0
0
0
0
0
0
0
0
0
0
0
0
0
0
0
0
0
0
0
0
0
0
0
0
0
0
0
0
0
0
0
0
0
0
0
0
0
0
0
0
0
0
0
0
0
0
0
0
0
0
0
0
0
0
0
0
0
0
0
0
0
0
0
0
0
0
0
0
0
0
0
0
0.26915484
0.35358247
0.26914253
0.20601688
0.37389852
0.26915506
0.26915497
0.31608233
0.26915509
0.26915509
0.31521899
0.26915509
0.26915509
0.31502738
0.26915509
0.26915509
0.31502799
0.26915509
0.26915509
0.31502797
0.26915509
0.26915509
0.31502798
0.26915509
0.26915509
0.3150277
0.26915509
0.26915509
0.31432482
0.26915498
0.26915509
0.27617826
0.11016164
0.19234904
0.019909097
0.052227918
0.051507061
0.052691311
0.02105272
0.25918476
0.0515595
0.052689944
0.26375466
0.095705651
0.2691543
0.051560542
0.052684157
0.2691519
0.1004936
0.26799058
0.26691093
0.076389964
0.26069543
0.26856132
0.16556475
0.26678434
0.26633354
0.19011286
0.16769258
0.23035099
0.26915492
0.18691112
0.26915509
0.20113461
0.25047302
0.074246831
0.21361127
0.049666527
0.073050928
0.066575012
0.22669787
0.037349654
0.033392005
0.26754884
0.25094706
0.26891585
0.2623422
0.26908633
0.26787202
0.2690003
0.26430104
0.2691302
0.16384133
0.20011396
0.26915497
0.21913329
0.26915509
0.26915509
0.26915509
0.26915251
0.28888666
0.25378864
0.12486875
0.34749743
0.23460954
0.26073694
0.26915509
0.25181189
0.26915509
0.19826401
0.23814893
0.40269479
0.33656882
0.29031356
0.12459601
0.1273608
0.26316246
0.45190653
0.10459197
0.26402476
0.48832468
0.51907143
0.2501332
0.26915497
0.26745127
0.26915438
0.26915503
0.53356427
0.5358573
0.26757365
0.51470271
0.50121463
0.26915509
0.26915509
0.26915509
0.26915509
0.26915509
0.52738366
0.53604764
0.53523841
0.50034641
0.5000932
0.26915509
0.26915509
0.26915509
0.26915509
0.26915509
0.52696632
0.53520199
0.53517676
0.50009348
0.50009406
0.26915509
0.26915509
0.26915509
0.26915509
0.26915509
0.52696669
0.53517686
0.53517693
0.50009405
0.50009402
0.26915509
0.26915509
0.26915509
0.26915509
0.26915509
0.52696668
0.53517693
0.53517693
0.50009402
0.50009402
0.26915509
0.26915509
0.26915509
0.26915509
0.26915509
0.52696668
0.53517693
0.53517693
0.500094
0.50009408
0.26915509
0.26915509
0.26915509
0.26915509
0.26915509
0.52696663
0.53517693
0.53517655
0.50009692
0.49988787
0.26915509
0.26915509
0.26915509
0.26915509
0.26915509
0.52618327
0.53517139
0.53215253
0.49698284
0.35195206
0.26915509
0.26915509
0.26915509
0.26915509
0.26915509
0.3742026
0.52073146
0.14967072
0.2689534
0.26913377
0.071221248
0.26915509
0.2691534
0.025561425
0.055097099
0.038553824
0.053961998
0.054942873
0.05432694
0.072862636
0.052701533
0.079036135
0.066509261
0.021762367
0.054944957
0.054343898
0.26737261
0.054942958
0.054359112
0.13900359
0.052689466
0.21961543
0.054833795
0.21596797
0.26382754
0.26614109
0.19078691
0.26915457
0.054942804
0.054359089
0.26915023
0.054928808
0.054340379
0.13900789
0.05268335
0.070832664
0.26677592
0.058890069
0.26915063
0.26915179
0.14437647
0.16725255
0.26821828
0.26915478
0.26901416
0.26884088
0.049996006
0.050963559
0.26915077
0.2684996
0.18505637
0.26903852
0.26873602
0.26884421
0.23939663
0.2690398
0.26804143
0.26851284
0.024347906
0.26900531
0.088989397
0.26903131
0.26913843
0.20976069
0.20876918
0.22681167
0.26856742
0.25674327
0.088734322
0.26849775
0.052771828
0.22271436
0.14371999
0.22976248
0.023830868
0.017647321
0.22964479
0.037874133
0.2058786
0.26915509
0.26889549
0.26912575
0.26915509
0.26914797
0.24099333
0.20109576
0.26913714
0.24592435
0.22935857
0.26423322
0.26075355
0.11222794
0.11202814
0.25687269
0.17531659
0.26915509
0.26915302
0.26915509
0.26915509
0.26915482
0.26915485
0.26763302
0.26819411
0.26915044
0.22292581
0.21311864
0.25327272
0.24034416
0.18897911
0.21125351
0.23874666
0.23760823
0.20738872
0.22646209
0.19521864
0.18630597
0.24018147
0.22897142
0.16490055
0.20224531
0.21559951
0.22684883
0.18828326
0.25288357
0.23776972
0.22293817
0.20631235
0.25322779
0.24532821
0.077120009
0.074238446
0.24558331
0.25869339
0.17907946
0.23827074
0.23687513
0.23773404
0.23752899
0.25427492
0.20049372
0.26411406
0.24303243
0.25940022
0.19563586
0.1966178
0.24027707
0.24080784
0.045751842
0.012500987
0.2172986
0.20040198
0.26153099
0.26786787
0.22949326
0.26332091
0.26849147
0.26777159
0.26708672
0.26870452
0.26294262
0.26849276
0.2507617
0.26259868
0.26908936
0.26891466
0.26872477
0.26596729
0.26823831
0.26915142
0.26913685
0.26912057
0.26799323
0.1550943
0.22028139
0.029280005
0.041671019
0.20854592
0.10433996
0.22031875
0.14240588
0.039270495
0.032210105
0.03166154
0.030545189
0.012699904
0.26915509
0.26900881
0.26915503
0.26887732
0.26807866
0.26915509
0.26899294
0.10118667
0.26898983
0.26793586
0.29314902
0.29637814
0.062079581
0.3044385
0.27596194
0.42314952
0.44821485
0.26570968
0.20981045
0.33123793
0.12477076
0.33669908
0.26915509
0.26915509
0.5268339
0.52635382
0.26758707
0.31602707
0.26915194
0.32518948
0.32504296
0.26915509
0.26915509
0.52603453
0.52596476
0.26915509
0.31506145
0.26915509
0.32501317
0.32501341
0.26915509
0.26915509
0.52594222
0.52594248
0.26915509
0.31502784
0.26915509
0.32501343
0.32501341
0.26915509
0.26915509
0.52594257
0.52594257
0.26915509
0.31502798
0.26915509
0.32501339
0.32501339
0.26915509
0.26915509
0.52594256
0.52594256
0.26915509
0.31502797
0.26915509
0.32501338
0.32501335
0.26915509
0.26915509
0.52594256
0.52594256
0.26915509
0.31502798
0.26915509
0.32501704
0.32503693
0.26915509
0.26915509
0.52593839
0.52589677
0.26915509
0.31502633
0.26915509
0.32520125
0.32511162
0.26915509
0.26915509
0.51394216
0.48064021
0.26915509
0.31199653
0.26915509
0.26915506
0.2691531
0.17768188
0.025483175
0.046549255
0.052867228
0.23845217
0.23836918
0.1285957
0.20664447
0.10050419
0.25863818
0.023981246
0.26166262
0.051552165
0.052685656
0.25011747
0.23837542
0.23468886
0.238381
0.23906623
0.26858341
0.2685613
0.26863798
0.10451194
0.051559844
0.052690211
0.05258562
0.23838044
0.23926212
0.23838002
0.23926213
0.14751852
0.26874269
0.23705732
0.25751802
0.21538106
0.26812232
0.26863805
0.26915377
0.26819393
0.052663583
0.051523563
0.15108839
0.26679713
0.26914885
0.26872571
0.2691469
0.23404784
0.020682425
0.052637694
0.20828755
0.26915358
0.26911641
0.26902707
0.19505675
0.22240298
0.077276503
0.18777921
0.13772641
0.0224897
0.26908734
0.19553552
0.26692975
0.23405363
0.26913888
0.26409421
0.26645025
0.16847034
0.26676662
0.21325044
0.23438592
0.023686843
0.023058098
0.16621473
0.26910426
0.21325214
0.26677974
0.22918381
0.14304479
0.24200142
0.085222405
0.02006065
0.1584543
0.26915498
0.26915228
0.05660228
0.11018783
0.056861914
0.24524913
0.13716852
0.041501539
0.14477296
0.073261643
0.18145545
0.16985554
0.012264091
0.010073904
0.079617467
0.26886322
0.26371403
0.16564941
0.068549939
0.26909032
0.26915509
0.26908809
0.26915479
0.26915509
0.26915509
0.26915509
0.26915509
0.26904279
0.26915509
0.26915509
0.26915509
0.26915509
0.26915509
0.26915509
0.26915509
0.26915509
0.26915053
0.26915425
0.26375595
0.13925231
0.26915509
0.26743335
0.26190186
0.26844468
0.26663693
0.11790364
0.2669592
0.29344945
0.33204951
0.26687487
0.22768762
0.26915503
0.26900189
0.26850899
0.1219221
0.26326542
0.1643216
0.25829693
0.26831934
0.26915509
0.26612483
0.12546358
0.23456075
0.36018386
0.1411532
0.21077392
0.36176664
0.41431755
0.37936434
0.17801957
0.33883875
0.39048262
0.17339063
0.096060408
0.14930639
0.18931582
0.18903882
0.35277895
0.47274488
0.38192659
0.15501096
0.23780866
0.47467537
0.4847484
0.39878874
0.18192157
0.017181706
0.26445244
0.087255589
0.21438726
0.021395914
0.21516079
0.20294085
0.041619786
0.46632307
0.51820534
0.49680485
0.5222378
0.4807845
0.49210106
0.32728508
0.26807143
0.41056184
0.39303323
0.2689525
0.26915509
0.2691115
0.26846641
0.26913099
0.53378208
0.53737174
0.53690001
0.5190841
0.53035379
0.53588569
0.53776358
0.23732534
0.26884968
0.24080469
0.26895236
0.26860763
0.24884522
0.26750861
0.47171754
0.50891723
0.46027591
0.50376489
0.44631729
0.45044741
0.26915509
0.26915509
0.26915509
0.3257825
0.32765604
0.26915509
0.26915509
0.26915509
0.26915509
0.26915509
0.26915509
0.53792259
0.53770036
0.52835436
0.53588832
0.53613779
0.53752128
0.53757577
0.53535734
0.53527812
0.26905823
0.26915503
0.26878857
0.26643131
0.26915453
0.26915509
0.26915509
0.26915509
0.26915509
0.26915507
0.26915458
0.4449684
0.50013427
0.44463467
0.50009718
0.44456713
0.44457396
0.26915509
0.26915509
0.26915509
0.32501297
0.32501601
0.26915509
0.26915509
0.26915509
0.26915509
0.26915509
0.26915509
0.53750299
0.53749826
0.52696742
0.53578938
0.53578954
0.53749737
0.53749742
0.53518283
0.53517741
0.26915509
0.26915509
0.26915509
0.26915509
0.26915509
0.26915509
0.26915509
0.26915509
0.44456756
0.50009387
0.44456813
0.50009403
0.44456832
0.44456832
0.26915509
0.26915509
0.26915509
0.32501346
0.32501347
0.26915509
0.26915509
0.26915509
0.26915509
0.26915509
0.26915509
0.5374974
0.53749741
0.52696668
0.53578949
0.53578948
0.53749741
0.53749741
0.53517692
0.53517693
0.26915509
0.26915509
0.26915509
0.26915509
0.26915509
0.26915509
0.26915509
0.26915509
0.26915509
0.26915509
0.26915509
0.44456827
0.50009404
0.44456824
0.50009403
0.44456821
0.44456822
0.26915509
0.26915509
0.26915509
0.32501339
0.3250134
0.26915509
0.26915509
0.26915509
0.26915509
0.26915509
0.26915509
0.53749741
0.53749741
0.52696668
0.53578948
0.53578949
0.53749741
0.53749741
0.53517693
0.53517693
0.26915509
0.26915509
0.26915509
0.26915509
0.26915509
0.26915509
0.26915509
0.26915509
0.44456821
0.50009402
0.44456821
0.50009402
0.4445682
0.44456821
0.26915509
0.26915509
0.26915509
0.32501339
0.3250134
0.26915509
0.26915509
0.26915509
0.26915509
0.26915509
0.26915509
0.53749741
0.53749741
0.52696668
0.53578948
0.53578948
0.53749741
0.53749741
0.53517693
0.53517693
0.26915509
0.26915509
0.26915509
0.26915509
0.26915509
0.26915509
0.26915509
0.26915509
0.26915509
0.26915509
0.26915509
0.44456818
0.50009396
0.44456811
0.5000939
0.44456864
0.44456804
0.26915509
0.26915509
0.26915509
0.32501367
0.32501333
0.26915509
0.26915509
0.26915509
0.26915509
0.26915509
0.26915509
0.53749741
0.53749741
0.52696664
0.53578941
0.53578947
0.53749718
0.5374974
0.53517693
0.53517691
0.26915509
0.26915509
0.26915509
0.26915509
0.26915509
0.26915509
0.26915509
0.26915509
0.44457528
0.50011388
0.4446153
0.50015062
0.44496822
0.44476436
0.26915509
0.26915509
0.26915509
0.32528565
0.32511523
0.26915509
0.26915509
0.26915509
0.26915509
0.26915509
0.26915509
0.53749358
0.5374525
0.52689153
0.53430879
0.53558639
0.53502248
0.53711297
0.5351166
0.53468737
0.26915509
0.26915509
0.26915509
0.26915509
0.26915509
0.26915509
0.26915509
0.26915509
0.26915509
0.26915509
0.26915509
0.44375037
0.48265508
0.43459943
0.3081252
0.43810437
0.39666777
0.26915509
0.26915509
0.26915509
0.27497318
0.26915509
0.26915509
0.26915509
0.26915509
0.26915509
0.26915509
0.52531684
0.49123196
0.33328467
0.45744881
0.44198229
0.22235998
0.40096345
0.48119213
0.37512988
0.26915509
0.26915509
0.26915509
0.26915509
0.26915509
0.26915509
0.26915509
0.26915509
0.26915509
0.26905974
0.26913146
0.016736527
0.26137907
0.25955208
0.062456942
0.22757216
0.16306761
0.044695245
0.054939802
0.053005248
0.19523146
0.24787949
0.18189669
0.054933069
0.053867598
0.25092275
0.22115585
0.2231379
0.22302993
0.25333605
0.25335097
0.2229867
0.22300668
0.25336445
0.25335564
0.072514165
0.052803189
0.072517206
0.056272431
0.24786897
0.17686997
0.23230772
0.10150619
0.2223705
0.19313653
0.23886354
0.23772962
0.23768665
0.23770478
0.2396846
0.2376843
0.19555663
0.19532147
0.2402967
0.25891693
0.24027331
0.19529337
0.19529748
0.24026621
0.24026897
0.25890122
0.25355856
0.054944932
0.054358047
0.25578468
0.25011741
0.26624945
0.26607053
0.054944261
0.054358848
0.25587172
0.25585022
0.2229874
0.2229913
0.25336501
0.25336418
0.22299263
0.222992
0.2533632
0.2533638
0.26489548
0.05268666
0.26745877
0.2487888
0.18765347
0.26680789
0.26733937
0.26601778
0.26893625
0.22216016
0.26848983
0.26820688
0.26692232
0.26906757
0.26058035
0.23771574
0.26895835
0.23772201
0.26829501
0.23772044
0.2690968
0.23772156
0.19529745
0.19530414
0.24026611
0.25890849
0.24026571
0.19530455
0.19530466
0.24026534
0.24026557
0.25891048
0.18512401
0.269018
0.25309521
0.052679569
0.26684974
0.24553421
0.26911781
0.26874282
0.2619032
0.25587198
0.054942436
0.054358934
0.25587198
0.26625253
0.26914718
0.26625276
0.25587041
0.054941503
0.054357797
0.25587178
0.22299265
0.22299236
0.25336314
0.25336301
0.22297315
0.22299151
0.25334746
0.25336266
0.072758672
0.052689585
0.072472417
0.26773322
0.269066
0.26658529
0.058947663
0.25728089
0.25729612
0.26913065
0.26656324
0.26656571
0.26897389
0.2674485
0.25030274
0.26190088
0.21639431
0.19236463
0.19517468
0.26604
0.23771904
0.23769551
0.23767328
0.24073384
0.23769122
0.19530441
0.195304
0.24026532
0.24026523
0.19527746
0.19530316
0.24024614
0.24026482
0.25890963
0.25020556
0.054835872
0.25922995
0.22218095
0.099339401
0.26915477
0.26901866
0.26915369
0.26679832
0.26915505
0.26915048
0.26915376
0.26915491
0.26915485
0.26201817
0.25386859
0.25336713
0.26507617
0.240771
0.25079344
0.052405906
0.051253744
0.14552327
0.21924445
0.25304506
0.21010336
0.2418814
0.2665646
0.26915107
0.26668705
0.077530746
0.20761129
0.25700466
0.26914946
0.24304856
0.2663139
0.2662008
0.25309847
0.26901863
0.26915479
0.26915505
0.26915205
0.26189691
0.26915485
0.26911816
0.24507234
0.26915035
0.2667778
0.16386067
0.26885476
0.26455732
0.26915399
0.26911989
0.26820538
0.24447545
0.26915302
0.26848615
0.26915361
0.24545126
0.26849245
0.21416129
0.21544379
0.26643187
0.26915503
0.26915185
0.26913041
0.23505139
0.24503139
0.26837055
0.26915454
0.26022923
0.26901491
0.15011236
0.053025317
0.24504357
0.26914687
0.2689961
0.26615145
0.098170394
0.26807019
0.25761502
0.22643728
0.2267603
0.26914027
0.25265117
0.26895603
0.25684486
0.26015688
0.26896211
0.23501086
0.24496978
0.26836396
0.24521075
0.24595056
0.092065704
0.21749798
0.024721828
0.26857163
0.2297143
0.26875156
0.24813499
0.25944675
0.2687941
0.22977719
0.26588524
0.268717
0.21470243
0.02462846
0.20191375
0.024685774
0.22016218
0.25966649
0.16382109
0.20310977
0.091004939
0.26895256
0.2691235
0.26915509
0.26915509
0.26915508
0.26915509
0.26915509
0.26915509
0.26915486
0.26915354
0.26915509
0.26915509
0.26915509
0.26910725
0.15759513
0.2226107
0.054803494
0.22081016
0.15173608
0.25278368
0.25025458
0.15311803
0.15311831
0.049281832
0.13564658
0.13506166
0.043318975
0.14913262
0.2618925
0.23646702
0.2615446
0.23720963
0.24290656
0.24937549
0.23509837
0.19490148
0.19323094
0.078063356
0.25911669
0.23978651
0.25963241
0.23767542
0.043095005
0.11760485
0.14353169
0.15142445
0.17826701
0.19634907
0.018706028
0.17946719
0.097075623
0.24101945
0.23444659
0.26484688
0.25388341
0.25326082
0.24582437
0.25105461
0.26557874
0.044132087
0.15788389
0.22171264
0.13467249
0.21730635
0.25263432
0.2504938
0.26863058
0.26800619
0.2670999
0.26741899
0.25992332
0.26640766
0.083235517
0.18776107
0.25904193
0.23658184
0.017679601
0.064259353
0.21381021
0.25039897
0.24516701
0.22941731
0.16628578
0.26700076
0.267041
0.073527961
0.18337582
0.23344774
0.25802914
0.25805667
0.23447605
0.26187081
0.26552537
0.24952097
0.19363169
0.24281558
0.24153149
0.26069005
0.26129095
0.2305559
0.26158284
0.23769093
0.24664443
0.215787
0.26070783
0.23757398
0.23564334
0.21382429
0.085187872
0.26552498
0.25724497
0.26769688
0.24884144
0.19562531
0.19566806
0.25967967
0.24022276
0.25971047
0.24024301
0.022734295
0.065291607
0.2254735
0.25451661
0.24825766
0.16604749
0.033137485
0.13014536
0.18687538
0.16058955
0.022574891
0.074769528
0.15301732
0.19979004
0.15525303
0.22836535
0.16495812
0.22022822
0.07786618
0.1913064
0.18820712
0.26733412
0.26882719
0.26712979
0.023692979
0.051765556
0.098802166
0.26672991
0.24987835
0.25896736
0.061530052
0.16342951
0.02947893
0.1118673
0.019326816
0.26915509
0.26915498
0.26915509
0.26915509
0.26915509
0.26915509
0.26915509
0.26915509
0.26915509
0.26915509
0.26915509
0.26915509
0.26915509
0.26915509
0.26915509
0.26915509
0.26915509
0.14995505
0.052853773
0.031407118
0.080646703
0.080564366
0.013119324
0.15111889
0.052686706
0.051536852
0.079112221
0.14798577
0.15111966
0.052690229
0.051559757
0.020976641
0.070464395
0.26915509
0.26915509
0.25208566
0.25441799
0.25573388
0.25584038
0.26416333
0.26875615
0.26418358
0.26863072
0.26915509
0.26915509
0.26915509
0.26915509
0.26915509
0.26915509
0.26915509
0.26915509
0.26915509
0.26915509
0.26915509
0.26915509
0.26915509
0.26915509
0.26915509
0.26915509
0.26915509
0.26915509
0.26915509
0.26915509
0.26915509
0.26915509
0.26915509
0.26915509
0.26915509
0.26915509
0.26915509
0.26915509
0.26915509
0.26915509
0.26915509
0.26915509
0.26915509
0.26915509
0.26915509
0.26915509
0.26915509
0.26915509
0.26915509
0.26915509
0.26915509
0.26915509
0.26915509
0.26915509
0.26915509
0.26915509
0.26915509
0.26915509
0.008839942
0.061546035
0.020123761
0.10149556
0.021066814
0.21874731
0.15515543
0.097772035
0.055028124
0.046554587
0.15508065
0.1226467
0.022052626
0.15004904
0.09924181
0.054939327
0.054287036
0.15499923
0.15400881
0.15499269
0.15373904
0.056952334
0.056608155
0.18119483
0.072702131
0.052720836
0.15113188
0.074048629
0.19115069
0.051910927
0.060429473
0.173945
0.16344988
0.037614626
0.079157951
0.082836239
0.14731239
0.22344665
0.26176138
0.22365376
0.15500267
0.15411609
0.054945683
0.054352109
0.15500363
0.15416053
0.054943242
0.05435915
0.1549983
0.15418908
0.1549988
0.15418898
0.05660748
0.056618044
0.21538342
0.21961232
0.052688748
0.15111902
0.25326308
0.24484924
0.2520721
0.23977875
0.25919309
0.080155429
0.21460999
0.080200649
0.26769257
0.23599526
0.095922801
0.26855063
0.26871632
0.22365499
0.26914963
0.22365389
0.15499804
0.15418911
0.054942741
0.054359115
0.15499793
0.15418917
0.15497234
0.15416425
0.054934328
0.054347822
0.15498352
0.15417325
0.056618171
0.056603642
0.21538709
0.079039578
0.15110355
0.052685479
0.17767609
0.072074077
0.058887244
0.16213009
0.16212522
0.080200862
0.26882967
0.080195191
0.26886892
0.26160554
0.26913432
0.21443841
0.22176157
0.26913984
0.26855427
0.26915359
0.26915013
0.22360917
0.26849434
0.15842066
0.26915469
0.2589794
0.26912951
0.26906909
0.096678079
0.25730476
0.26404049
0.2020755
0.26911532
0.26913867
0.26845997
0.26896141
0.16629268
0.24446833
0.013970515
0.01202192
0.15925211
0.16300306
0.21292253
0.21490638
0.26647866
0.26915399
0.086841499
0.2664175
0.26820314
0.083536993
0.26914227
0.25025923
0.22978329
0.26902587
0.23026134
0.21265076
0.26047324
0.021438265
0.022669964
0.26803789
0.26581514
0.16702786
0.26608484
0.15653958
0.16640911
0.22463972
0.022619728
0.012646508
0.24159848
0.044190577
0.04955862
0.043678839
0.052305393
0.0438335
0.046781588
0.043408125
0.06103171
0.045094637
0.2691495
0.2331054
0.11262155
0.045869249
0.26822381
0.19779831
0.13646698
0.26756137
0.10227446
0.26915473
0.26906268
0.26915509
0.26915509
0.26915507
0.26900262
0.26913769
0.26913787
0.26914785
0.26915503
0.26915189
0.26872705
0.26912541
0.26881628
0.25833644
0.25880677
0.23212576
0.26915509
0.26915509
0.26915509
0.26915509
0.26915509
0.26915509
0.26915509
0.26915509
0.26915509
0.26915509
0.26915509
0.26915509
0.26915509
0.26915509
0.26915509
0.26915509
0.25399187
0.25399147
0.26580782
0.26580596
0.25396967
0.21809267
0.25248021
0.25304149
0.052921417
0.040734629
0.1513621
0.2531316
0.21938821
0.087738097
0.086886636
0.037911445
0.13882784
0.19286115
0.23841731
0.1927505
0.013412279
0.026531603
0.080440122
0.080490136
0.038155429
0.23838727
0.19258626
0.19265161
0.18532369
0.21568121
0.14444501
0.26580329
0.25395875
0.2539591
0.26580326
0.2539597
0.2193008
0.25311024
0.25311131
0.052685342
0.051547354
0.15111329
0.2193012
0.16508217
0.053595121
0.1925589
0.23837856
0.19256516
0.080419309
0.079304082
0.080418162
0.079287452
0.23838027
0.19257045
0.19256878
0.26580333
0.25396
0.25396
0.26580333
0.25395999
0.21930386
0.25311127
0.052690343
0.051559863
0.1511199
0.21930374
0.1925698
0.23838035
0.19256962
0.23838027
0.19256909
0.19256948
0.24549887
0.18765093
0.052442647
0.083454632
0.018867596
0.050102994
0.023076986
0.024022465
0.08911364
0.083759134
0.086883761
0.02250482
0.26915509
0.26915509
0.26915509
0.26915509
0.26915509
0.26915509
0.26915509
0.26915509
0.26915509
0.26915509
0.26915509
0.26915509
0.26915491
0.26914583
0.26915509
0.26915509
0.26915509
0.26915509
0.26915509
0.26915509
0.26915509
0.26915509
0.26915509
0.26915509
0.26915509
0.26915509
0.26915509
0.26915509
0.26915509
0.26913791
0.26915289
0.2689412
0.261203
0.2661498
0.26915509
0.26915509
0.26915494
0.26915509
0.26915288
0.26401813
0.26111682
0.26915435
0.26914441
0.26915509
0.26915502
0.26915328
0.26915509
0.2691527
0.26730364
0.26811013
0.26915509
0.26915495
0.269155
0.26915311
0.26915509
0.26915507
0.24782911
0.26375102
0.26915509
0.26915509
0.26915509
0.26915509
0.26915509
0.26915509
0.26915509
0.26915509
0.26915509
0.26915509
0.26915509
0.26915509
0.26915509
0.26915509
0.26915509
0.26915509
0.26915509
0.26915509
0.26888993
0.26909511
0.26772301
0.26914805
0.26915509
0.26915509
0.26915509
0.26915509
0.26915509
0.26915509
0.26915509
0.26915509
0.26915509
0.26915509
0.26915509
0.26915509
0.26915509
0.26915509
0.26915509
0.26915509
0.26915509
0.26915509
0.26915509
0.26915509
0.26915509
0.26915509
0.26915509
0.26915509
0.26915509
0.26915509
0.26915509
0.26915509
0.26915509
0.26915509
0.26915509
0.26915509
0.26915509
0.26915509
0.26915509
0.26915509
0.26915509
0.26915509
0.26915509
0.26915509
0.26915509
0.26915509
0.26915509
0.26915509
0.26915509
0.26915509
0.26915509
0.26915509
0.26915509
0.26915509
0.26915509
0.26915509
0.26915509
0.26915509
0.26915509
0.26915509
0.26915509
0.26915509
0.26915509
0.26915509
0.26915509
0.26915509
0.26915509
0.26915509
0.26915509
0.26915509
0.26915509
0.26915509
0.26915509
0.26915509
0.26915509
0.26915509
0.26915509
0.26915509
0.26915509
0.26915509
0.26915509
0.26915509
0.26915509
0.26915509
0.26915509
0.26915509
0.26915509
0.26915509
0.26915509
0.26915509
0.26915509
0.26915509
0.26915509
0.26915509
0.26915509
0.26915509
0.26915509
0.26915509
0.26915509
0.26915509
0.26915509
0.26915509
0.26915509
0.26915509
0.26915509
0.26915509
0.26915509
0.26915509
0.26915509
0.26915509
0.26915509
0.26915509
0.26915509
0.26915509
0.26915509
0.26915509
0.26915509
0.26915509
0.26915509
0.26915509
0.26915509
0.26915509
0.26915509
0.26915509
0.26915509
0.26915509
0.26915509
0.26915509
0.26915509
0.26915509
0.26915509
0.26915509
0.26915509
0.26915509
0.26915509
0.26915509
0.26915509
0.26915509
0.26915509
0.26915509
0.26915509
0.26915509
0.26915509
0.26915509
0.26915509
0.26915509
0.26915509
0.26915509
0.26915509
0.26915509
0.26915509
0.26915509
0.26915509
0.26915509
0.26915509
0.26915509
0.26915509
0.26915509
0.26915509
0.26915509
0.26915509
0.26915509
0.26915509
0.26915509
0.26915509
0.26915509
0.26915509
0.26915509
0.26915509
0.26915509
0.26915509
0.26915509
0.26915509
0.26915509
0.26915509
0.26915509
0.26915509
0.26915509
0.26915509
0.26915509
0.26915509
0.26915509
0.26915509
0.26915509
0.26915509
0.26915509
0.26915509
0.26915509
0.26915509
0.26915509
0.26915509
0.26915509
0.26915509
0.26915509
0.26915509
0.26915509
0.26915509
0.26915509
0.26915509
0.26915509
0.26915509
0.26915509
0.26915509
0.26915509
0.26915509
0.26915509
0.26915509
0.26915509
0.26915509
0.26915509
0.26915509
0.26915509
0.26915509
0.26915509
0.26915509
0.26915509
0.26915509
0.26915509
0.26915509
0.26915509
0.26915509
0.26915509
0.26915509
0.26915509
0.26915509
0.26915509
0.26915509
0.26915509
0.052721137
0.011283819
0.043009901
0.14161609
0.088377508
0.086124893
0.024248422
0.21218837
0.2386402
0.22126985
0.22154049
0.22154275
0.10391346
0.092413811
0.14466272
0.054969801
0.050910191
0.15497776
0.14719033
0.15501039
0.13845139
0.22153065
0.22153111
0.021723768
0.054747248
0.097270701
0.21298965
0.15029101
0.054935136
0.054179608
0.1549755
0.15131667
0.15498363
0.15305337
0.22155976
0.22155548
0.22153877
0.22154824
0.15809036
0.22311363
0.056715957
0.22306627
0.15776592
0.25334693
0.25334791
0.26580342
0.25395858
0.25395895
0.25396041
0.26580324
0.056663489
0.15762433
0.22298812
0.15769533
0.22299382
0.25336287
0.25335993
0.23335278
0.25800489
0.25798414
0.072584526
0.18072159
0.23318914
0.052753567
0.15127047
0.21930424
0.25310988
0.25311141
0.21935206
0.072771412
0.18073895
0.23874128
0.25989059
0.23321052
0.058319505
0.15041245
0.15789899
0.083508157
0.13476639
0.08609366
0.1222084
0.097447226
0.13362312
0.049378722
0.17537388
0.2022272
0.08827758
0.08273336
0.19517267
0.083925227
0.26195481
0.2393252
0.26161098
0.23771151
0.26212959
0.23769558
0.26160993
0.2650895
0.26170826
0.23769341
0.26218887
0.24074163
0.26161114
0.23768669
0.1954538
0.19537147
0.25972755
0.25973276
0.24029192
0.24028136
0.19528978
0.081938183
0.19528952
0.25972915
0.24026642
0.25972985
0.2402671
0.048891426
0.079411148
0.018649608
0.13635036
0.078919721
0.056740862
0.12411326
0.077701522
0.18751908
0.1818888
0.022908937
0.16147825
0.098352774
0.21447157
0.18444976
0.2357855
0.25462283
0.22358398
0.2553554
0.25262886
0.26734528
0.26456529
0.22365158
0.2557965
0.25578397
0.22156158
0.22156178
0.054945517
0.054356161
0.15500189
0.15418508
0.15500308
0.15417843
0.22156017
0.22156112
0.054943677
0.054359116
0.15500063
0.1541876
0.15499957
0.15418861
0.22155776
0.22155807
0.22155927
0.22155856
0.1576242
0.22298883
0.056614406
0.22299023
0.15763418
0.25336496
0.25336461
0.26580333
0.25396
0.25395999
0.26580333
0.056616096
0.15763888
0.22299257
0.15763642
0.22299239
0.25336332
0.25336351
0.24832091
0.26286672
0.25326202
0.26695292
0.26891703
0.26831387
0.052687783
0.15111497
0.21930371
0.25311245
0.25311288
0.25311264
0.21930211
0.26489572
0.26830894
0.25935982
0.26618749
0.26907547
0.26885821
0.26458348
0.26813047
0.2664937
0.26867642
0.26906757
0.26894054
0.26706893
0.26177238
0.23772106
0.26829501
0.26890067
0.23772224
0.26182122
0.26877227
0.26895835
0.26181872
0.23772082
0.26892364
0.26182131
0.23772114
0.19530076
0.19530294
0.2597279
0.240266
0.25972821
0.24026587
0.1953047
0.19530478
0.25972739
0.24026539
0.25972742
0.24026546
0.19206785
0.080183307
0.19221566
0.24792002
0.23659611
0.25732354
0.080199944
0.19229282
0.19229089
0.26578682
0.26718873
0.26676964
0.1847564
0.25036343
0.21551793
0.050937468
0.18258526
0.14161142
0.26736656
0.26607769
0.26158745
0.26904144
0.26899449
0.26908079
0.25580043
0.22365498
0.25580046
0.26914689
0.26909712
0.26909697
0.22365414
0.25580019
0.25580023
0.22155761
0.22155754
0.054942688
0.054359146
0.1549974
0.15418882
0.15499784
0.15418919
0.22155723
0.22155748
0.22153718
0.22154844
0.054939042
0.054354464
0.15499582
0.15418709
0.15499166
0.1541823
0.2215563
0.2215538
0.15763902
0.22299264
0.056617944
0.2229926
0.15763859
0.25336312
0.2533631
0.25394531
0.25395641
0.26580175