/*--------------------------------*- C++ -*----------------------------------*\
  =========                 |
  \\      /  F ield         | OpenFOAM: The Open Source CFD Toolbox
   \\    /   O peration     | Website:  https://openfoam.org
    \\  /    A nd           | Version:  12
     \\/     M anipulation  |
\*---------------------------------------------------------------------------*/
FoamFile
{
    format      ascii;
    class       volScalarField;
    location    "0";
    object      thicknessFraction;
}
// * * * * * * * * * * * * * * * * * * * * * * * * * * * * * * * * * * * * * //

dimensions      [0 0 0 0 0 0 0];

internalField   uniform 0;

boundaryField
{
    inlet
    {
        type            fixedValue;
        value           uniform 0;
    }
    outlet
    {
        type            fixedValue;
        value           uniform 0;
    }
    walls
    {
        type            fixedValue;
        value           uniform 0;
    }
    rocket
    {
        type            fixedValue;
        value           nonuniform List<scalar> 
12247
(
0
0
0
0
0
0
0
0
0
0
0
0
0
0
0
0
0
0
0
0
0
0
0
0
0
0
0
0
0
0
0
0
0
0
0
0
0
0
0
0
0
0
0
0
0
0
0
0
0
0
0
0
0
0
0
0
0
0
0
0
0
0
0
0
0
0
0
0
0
0
0
0
0
0
0
0
0
0
0
0
0
0
0
0
0
0
0
0
0
0
0
0
0
0
0
0
0
0
0
0
0
0
0
0
0
0
0
0
0
0
0
0
0
0
0
0
0
0
0
0
0
0
0
0
0
0
0
0
0
0
0
0
0
0
0
0
0
0
0
0
0
0
0
0
0
0
0
0
0
0
0
0
0
0
0
0
0
0
0
0
0
0
0
0
0
0
0
0
0
0
0
0
0
0
0
0
0
0
0
0
0
0
0
0
0
0
0
0
0
0
0
0
0
0
0
0
0
0
0
0
0
0
0
0
0
0
0
0
0
0
0
0
0
0
0
0
0
0
0
0
0
0
0
0
0
0
0
0
0
0
0
0
0
0
0
0
0
0
0
0
0
0
0
0
0
0
0
0
0
0
0
0
0
0
0
0
0
0
0
0
0
0
0
0
0
0
0
0
0
0
0
0
0
0
0
0
0
0
0
0
0
0
0
0
0
0
0
0
0
0
0
0
0
0
0
0
0
0
0
0
0
0
0
0
0
0
0
0
0
0
0
0
0
0
0
0
0
0
0
0
0
0
0
0
0
0
0
0
0
0
0
0
0
0
0
0
0
0
0
0
0
0
0
0
0
0
0
0
0
0
0
0
0
0
0
0
0
0
0
0
0
0
0
0
0
0
0
0
0
0
0
0
0
0
0
0
0
0
0
0
0
0
0
0
0
0
0
0
0
0
0
0
0
0
0
0
0
0
0
0
0
0
0
0
0
0
0
0
0
0
0
0
0
0
0
0
0
0
0
0
0
0
0
0
0
0
0
0
0
0
0
0
0
0
0
0
0
0
0
0
0
0
0
0
0
0
0
0
0
0
0
0
0
0
0
0
0
0
0
0
0
0
0
0
0
0
0
0
0
0
0
0
0
0
0
0
0
0
0
0
0
0
0
0
0
0
0
0
0
0
0
0
0
0
0
0
0
0
0
0
0
0
0
0
0
0
0
0
0
0
0
0
0
0
0
0
0
0
0
0
0
0
0
0
0
0
0
0
0
0
0
0
0
0
0
0
0
0
0
0
0
0
0
0
0
0
0
0
0
0
0
0
0
0
0
0
0
0
0
0
0
0
0
0
0
0
0
0
0
0
0
0
0
0
0
0
0
0
0
0
0
0
0
0
0
0
0
0
0
0
0
0
0
0
0
0
0
0
0
0
0
0
0
0
0
0
0
0
0
0
0
0
0
0
0
0
0
0
0
0
0
0
0
0
0
0
0
0
0
0
0
0
0
0
0
0
0
0
0
0
0
0
0
0
0
0
0
0
0
0
0
0
0
0
0
0
0
0
0
0
0
0
0
0
0
0
0
0
0
0
0
0
0
0
0
0
0
0
0
0
0
0
0
0
0
0
0
0
0
0
0
0
0
0
0
0
0
0
0
0
0
0
0
0
0
0
0
0
0
0
0
0
0
0
0
0
0
0
0
0
0
0
0
0
0
0
0
0
0
0
0
0
0
0
0
0
0
0
0
0
0
0
0
0
0
0
0
0
0
0
0
0
0
0
0
0
0
0
0
0
0
0
0
0
0
0
0
0
0
0
0
0
0
0
0
0
0
0
0
0
0
0
0
0
0
0
0
0
0
0
0
0
0
0
0
0
0
0
0
0
0
0
0
0
0
0
0
0
0
0
0
0
0
0
0
0
0
0
0
0
0
0
0
0
0
0
0
0
0
0
0
0
0
0
0
0
0
0
0
0
0
0
0
0
0
0
0
0
0
0
0
0
0
0
0
0
0
0
0
0
0
0
0
0
0
0
0
0
0
0
0
0
0
0
0
0
0
0
0
0
0
0
0
0
0
0
0
0
0
0
0
0
0
0
0
0
0
0
0
0
0
0
0
0
0
0
0
0
0
0
0
0
0
0
0
0
0
0
0
0
0
0
0
0
0
0
0
0
0
0
0
0
0
0
0
0
0
0
0
0
0
0
0
0
0
0
0
0
0
0
0
0
0
0
0
0
0
0
0
0
0
0
0
0
0
0
0
0
0
0
0
0
0
0
0
0
0
0
0
0
0
0
0
0
0
0
0
0
0
0
0
0
0
0
0
0
0
0
0
0
0
0
0
0
0
0
0
0
0
0
0
0
0
0
0
0
0
0
0
0
0
0
0
0
0
0
0
0
0
0
0
0
0
0
0
0
0
0
0
0
0
0
0
0
0
0
0
0
0
0
0
0
0
0
0
0
0
0
0
0
0
0
0
0
0
0
0
0
0
0
0
0
0
0
0
0
0
0
0
0
0
0
0
0
0
0
0
0
0
0
0
0
0
0
0
0
0
0
0
0
0
0
0
0
0
0
0
0
0
0
0
0
0
0
0
0
0
0
0
0
0
0
0
0
0
0
0
0
0
0
0
0
0
0
0
0
0
0
0
0
0
0
0
0
0
0
0
0
0
0
0
0
0
0
0
0
0
0
0
0
0
0
0
0
0
0
0
0
0
0
0
0
0
0
0
0
0
0
0
0
0
0
0
0
0
0
0
0
0
0
0
0
0
0
0
0
0
0
0
0
0
0
0
0
0
0
0
0
0
0
0
0
0
0
0
0
0
0
0
0
0
0
0
0
0
0
0
0
0
0
0
0
0
0
0
0
0
0
0
0
0
0
0
0
0
0
0
0
0
0
0
0
0
0
0
0
0
0
0
0
0
0
0
0
0
0
0
0
0
0
0
0
0
0
0
0
0
0
0
0
0
0
0
0
0
0
0
0
0
0
0
0
0
0
0
0.99999908
0.65683778
0.99995332
0.76542071
0.6945782
0.99999989
0.99999953
0.83882155
1
1
0.83653043
1
1
0.83602193
1
1
0.83602353
1
1
0.83602349
1
1
0.8360235
1
1
0.83602278
1
1
0.83415746
0.99999957
0.99999999
0.87950862
0.40928685
0.71464017
0.14793773
0.38808791
0.38273146
0.39153122
0.15643561
0.96295692
0.38312112
0.39152107
0.97993561
0.35557808
0.99999704
0.38312886
0.39147806
0.99998814
0.37336688
0.99567346
0.9916622
0.28381393
0.96856956
0.99779395
0.61512769
0.99119186
0.989517
0.70633203
0.6230333
0.85582996
0.99999936
0.69443651
0.99999999
0.74728148
0.93058994
0.27585148
0.79363635
0.36905508
0.27140831
0.24734814
0.84225741
0.18502172
0.12406232
0.99403225
0.93235116
0.99911112
0.97468786
0.99974453
0.99523298
0.9994249
0.98196561
0.99990752
0.60872463
0.7434894
0.99999953
0.81415248
0.99999997
1
1
0.99999041
0.53665465
0.94290857
0.4639286
0.64553382
0.87165188
0.96872378
1
0.93556426
1
0.73661623
0.88480186
0.74807203
0.62523212
0.71907379
0.40505089
0.337991
0.97773539
0.83949095
0.3885937
0.9809391
0.90714367
0.96426084
0.9293274
0.99999956
0.99366974
0.99999735
0.99999975
0.99118369
0.99544336
0.99412443
0.95614522
0.93108888
0.99999999
1
0.99999998
1
1
0.97970218
0.99579694
0.99429367
0.92947601
0.92900564
1
1
1
1
1
0.97892689
0.99422602
0.99417915
0.92900617
0.92900725
1
1
1
1
1
0.97892759
0.99417933
0.99417947
0.92900723
0.92900717
1
1
1
1
1
0.97892757
0.99417946
0.99417946
0.92900717
0.92900716
1
1
1
1
1
0.97892757
0.99417946
0.99417946
0.92900714
0.92900729
1
1
1
1
1
0.97892747
0.99417946
0.99417876
0.92901256
0.92862421
1
1
1
1
1
0.97747226
0.99416917
0.98856114
0.92322763
0.74721032
1
0.99999998
1
0.99999999
1
0.69514309
0.96734461
0.27803807
0.99925065
0.99992078
0.18900746
1
0.99999372
0.18993826
0.40940782
0.28648036
0.26731551
0.40826182
0.40368502
0.27070874
0.39160718
0.29364533
0.24710386
0.3234175
0.40827729
0.40381103
0.9933775
0.40826245
0.40392408
0.51644422
0.39151751
0.81594381
0.40745129
0.80239227
0.98020637
0.98880198
0.70883633
0.99999807
0.4082613
0.40392391
0.99998194
0.4081573
0.40378488
0.51646017
0.39147206
0.26316672
0.99116061
0.21879604
0.99998344
0.99998775
0.53640622
0.62139843
0.99651943
0.99999882
0.99947639
0.99883259
0.37150332
0.37869288
0.99998394
0.99756462
0.68754549
0.99956688
0.99844301
0.99884495
0.88943747
0.99957164
0.99586236
0.99761381
0.36184203
0.99944352
0.33062498
0.99954012
0.99993808
0.77933019
0.7756464
0.84268019
0.99781662
0.95388598
0.32967729
0.99755774
0.39212952
0.82745735
0.5339672
0.85364345
0.11805272
0.26226249
0.8532062
0.18761987
0.76490695
0.99999999
0.99903549
0.99989099
1
0.99997355
0.89536978
0.74713713
0.99993331
0.91369011
0.85214279
0.98171361
0.9687855
0.41696385
0.41622152
0.95436681
0.65135899
1
0.99999231
1
1
0.999999
0.99999908
0.994345
0.99642963
0.99998272
0.82824296
0.79180609
0.94099174
0.89295786
0.70211978
0.78487651
0.88702263
0.882793
0.77051756
0.8413814
0.72530166
0.69218817
0.89235343
0.85070438
0.61265997
0.75140807
0.80102334
0.84281826
0.69953444
0.93954594
0.883393
0.82828889
0.76651847
0.94082482
0.91147526
0.28652629
0.27582033
0.91242303
0.96113133
0.66533928
0.88525443
0.88006928
0.88326044
0.8824986
0.94471526
0.74490033
0.98127088
0.90294567
0.96375742
0.7268518
0.73050002
0.89270861
0.89468059
0.33996638
0.092890585
0.807336
0.7445595
0.97167396
0.99521755
0.85264318
0.97832409
0.99753442
0.99485985
0.99231532
0.99832597
0.97691861
0.9975392
0.93166249
0.97564076
0.99975576
0.99910671
0.99840121
0.98815625
0.99659386
0.99998635
0.99993222
0.99987172
0.99568331
0.5762265
0.81841807
0.27196221
0.38705397
0.77481692
0.38765738
0.81855686
0.52908485
0.19453713
0.23934234
0.15684409
0.22697092
0.18873735
0.99999999
0.99945652
0.99999977
0.99896797
0.99600069
0.99999999
0.99939755
0.37594187
0.99938599
0.99547017
0.54457268
0.5505713
0.23064613
0.80792108
0.73234977
0.78607006
0.83263305
0.98719915
0.38975753
0.61532911
0.26489403
0.83396548
1
1
0.97868091
0.97778908
0.99417427
0.83867491
0.99998827
0.86299017
0.86260134
1
1
0.97719595
0.97706634
1
0.83611234
1
0.86252227
0.86252291
1
1
0.97702446
0.97702496
1
0.83602315
1
0.86252297
0.86252291
1
1
0.97702512
0.97702511
1
0.83602351
1
0.86252287
0.86252288
1
1
0.9770251
0.9770251
1
0.83602349
1
0.86252285
0.86252277
1
1
0.9770251
0.97702509
1
0.83602351
1
0.86253255
0.86258533
1
1
0.97701736
0.97694003
1
0.83601914
1
0.86302141
0.80526465
1
1
0.95473238
0.8928685
1
0.82797862
1
0.99999989
0.99999259
0.66014682
0.18935681
0.34589169
0.3928384
0.88592849
0.88562016
0.47777546
0.76775242
0.37340625
0.96092621
0.17819649
0.97216298
0.38306662
0.3914892
0.92926893
0.88564335
0.87194657
0.88566408
0.88820996
0.99787602
0.99779388
0.99807876
0.51772847
0.38312367
0.39152305
0.39074587
0.88566202
0.88893776
0.88566044
0.88893779
0.54807998
0.99846779
0.88074617
0.95676443
0.80021171
0.99616289
0.99807901
0.9999951
0.99642897
0.39132519
0.38285408
0.56134324
0.99123939
0.9999768
0.99840471
0.99996955
0.86956499
0.076842035
0.1955664
0.77385698
0.99999438
0.99985628
0.99952434
0.72470019
0.82630048
0.28710771
0.69766174
0.51169908
0.08355666
0.99974827
0.72647899
0.99173212
0.86958649
0.99993978
0.98119714
0.98995061
0.62592292
0.99112605
0.79229577
0.87082106
0.11733925
0.085668445
0.61754257
0.99981114
0.79230208
0.99117479
0.85149349
0.53145861
0.89911514
0.31662936
0.099375912
0.58871003
0.99999957
0.99998956
0.4205923
0.40938416
0.42252155
0.91118146
0.50962631
0.30838383
0.53787931
0.27219118
0.67416689
0.6310694
0.18226059
0.14971151
0.59161033
0.99891559
0.97978465
0.61544223
0.25468565
0.99975937
1
0.99975108
0.99999886
1
1
1
1
0.99958277
1
1
1
1
1
1
1
0.99999999
0.99998304
0.99999688
0.97994042
0.51736828
1
0.85165984
0.81087653
0.99736057
0.5660824
0.25031482
0.99184153
0.77875824
0.61683676
0.4957641
0.60423904
0.99999976
0.99943081
0.99759953
0.45298083
0.97811794
0.5232934
0.95965834
0.99689489
0.99999998
0.98874157
0.33295615
0.4357353
0.66910097
0.26221536
0.39154735
0.67204122
0.76966322
0.70473186
0.33070073
0.6294489
0.7253859
0.32210171
0.20394064
0.55472251
0.35168538
0.70234161
0.65534511
0.87820162
0.70949167
0.38394459
0.44176883
0.88178784
0.90050015
0.74081589
0.67589867
0.063835709
0.98252811
0.27015276
0.68273094
0.056780629
0.79939334
0.75399224
0.15463124
0.86627206
0.96265193
0.92289699
0.97014289
0.89313655
0.91415893
0.81064807
0.99597383
0.76268637
0.81124899
0.99924731
1
0.99983803
0.99744132
0.99991044
0.9915883
0.99825668
0.99738036
0.96428437
0.98521968
0.9954961
0.9989846
0.88174197
0.99886529
0.89466891
0.99924677
0.99796601
0.92454211
0.99388276
0.87629316
0.94539773
0.85503845
0.93582642
0.82910803
0.8367804
1
1
1
0.86456392
0.86953595
1
1
1
1
1
1
0.99927998
0.99886716
0.98150541
0.99550099
0.99596441
0.99853448
0.9986357
0.99451461
0.99436745
0.99964012
0.99999977
0.99863824
0.98988026
0.99999792
1
0.99999999
1
1
0.9999999
0.99999809
0.82660224
0.92908193
0.82598226
0.92901304
0.82585681
0.82586949
1
1
1
0.86252174
0.86252981
1
1
1
1
1
1
0.9985005
0.99849171
0.97892895
0.9953172
0.99531749
0.99849006
0.99849015
0.99419043
0.99418036
1
1
1
1
1
1
1
1
0.8258576
0.92900689
0.82585867
0.92900719
0.82585902
0.82585902
1
1
1
0.86252305
0.86252309
1
1
1
1
1
1
0.99849012
0.99849014
0.97892756
0.99531739
0.99531738
0.99849014
0.99849014
0.99417944
0.99417947
1
1
1
1
1
1
1
1
1
1
1
0.82585893
0.9290072
0.82585886
0.92900718
0.82585881
0.82585882
1
1
1
0.86252288
0.86252289
1
1
1
1
1
1
0.99849014
0.99849014
0.97892758
0.99531738
0.99531738
0.99849014
0.99849014
0.99417946
0.99417946
1
1
1
1
1
1
1
1
0.82585881
0.92900717
0.82585881
0.92900717
0.8258588
0.82585881
1
1
1
0.86252287
0.86252288
1
1
1
1
1
1
0.99849014
0.99849014
0.97892757
0.99531738
0.99531738
0.99849014
0.99849014
0.99417946
0.99417946
1
1
1
1
1
1
1
1
1
1
1
0.82585876
0.92900706
0.82585863
0.92900694
0.82585962
0.82585849
1
1
1
0.86252361
0.8625227
1
1
1
1
1
1
0.99849014
0.99849014
0.97892749
0.99531724
0.99531736
0.99848972
0.99849012
0.99417945
0.99417942
1
1
1
1
1
1
1
1
0.82587194
0.92904406
0.82594628
0.92911231
0.8266019
0.82622319
1
1
1
0.86324539
0.86279312
1
1
1
1
1
1
0.99848302
0.99840671
0.97878797
0.99256675
0.9949401
0.99389254
0.99777598
0.99406739
0.99327003
1
1
1
1
1
1
1
1
1
1
1
0.82433953
0.89661146
0.80734017
0.81770485
0.81385115
0.73687584
1
1
1
0.89391409
1
1
1
1
1
1
0.97586272
0.91254443
0.61913127
0.84978665
0.82105505
0.41307035
0.74485577
0.89389379
0.69686565
1
1
1
1
1
1
1
1
1
0.99964573
0.99991219
0.24872689
0.97110952
0.96432165
0.30939754
0.84550568
0.60584998
0.33211517
0.408239
0.39386398
0.7253493
0.92095412
0.67580624
0.40818896
0.40027181
0.93226082
0.82166696
0.82903094
0.82862981
0.94122705
0.94128246
0.82846918
0.82854343
0.94133255
0.94129984
0.26941405
0.39236255
0.26942535
0.20907065
0.92091502
0.65713032
0.86309986
0.50283864
0.82617981
0.71756595
0.88745689
0.883244
0.88308434
0.88315171
0.89050738
0.88307563
0.7265574
0.72568374
0.89278153
0.96196186
0.89269465
0.72557931
0.7255946
0.89266825
0.89267853
0.96190347
0.94205374
0.40827711
0.40391617
0.95032452
0.92926874
0.98920456
0.98853983
0.40827213
0.40392212
0.95064787
0.95056802
0.82847179
0.82848628
0.94133465
0.94133157
0.82849122
0.82848887
0.9413279
0.94133015
0.98417413
0.39149666
0.99369761
0.92433249
0.69719458
0.99127938
0.99325399
0.98834385
0.99918694
0.82539833
0.99752832
0.99647708
0.99170449
0.99967484
0.96814202
0.88319244
0.99926903
0.88321574
0.99680452
0.88320989
0.99978343
0.88321404
0.72559449
0.72561935
0.8926679
0.96193048
0.89266642
0.72562086
0.72562128
0.89266503
0.8926659
0.96193788
0.68779678
0.99949065
0.94033225
0.39144397
0.99143484
0.91224061
0.99986149
0.99846826
0.97305682
0.95064884
0.40825857
0.40392276
0.95064887
0.98921603
0.99997061
0.98921687
0.95064301
0.40825163
0.40391431
0.95064809
0.82849127
0.82849022
0.94132768
0.9413272
0.82841885
0.82848704
0.94126944
0.94132592
0.27032248
0.3915184
0.26925895
0.99471728
0.99966899
0.99045234
0.21901002
0.95588342
0.95593999
0.9999092
0.99037041
0.99037959
0.99932676
0.99365946
0.92995729
0.97304821
0.80397627
0.7146981
0.72513835
0.98842641
0.88320469
0.88311726
0.88303466
0.89440568
0.88310133
0.72562035
0.72561884
0.89266495
0.89266463
0.72552021
0.7256157
0.89259369
0.89266312
0.96193471
0.92959622
0.40746672
0.96312482
0.82547557
0.49210488
0.99999879
0.99949311
0.9999948
0.99124383
0.99999984
0.99998287
0.99999505
0.9999993
0.99999911
0.97348399
0.94320558
0.94134249
0.98484546
0.89454374
0.93178041
0.38941047
0.38084915
0.54066697
0.81456547
0.94014593
0.78060333
0.89866924
0.99037548
0.99998504
0.9908304
0.28805231
0.77134446
0.95485713
0.99997908
0.90300563
0.98944403
0.98902382
0.94034436
0.999493
0.99999889
0.99999984
0.99998868
0.97303344
0.99999911
0.99986277
0.91052464
0.99998237
0.99116756
0.60879647
0.99888416
0.98291776
0.99999592
0.9998692
0.9964715
0.90830697
0.99999231
0.99751466
0.99999449
0.91193243
0.99753805
0.79567986
0.80044478
0.98988234
0.99999976
0.99998797
0.9999083
0.87329347
0.91037248
0.99708515
0.99999795
0.96683746
0.99947918
0.55771696
0.3940131
0.91041774
0.99996947
0.99940928
0.98884048
0.48631389
0.99596924
0.95712482
0.84128922
0.84248934
0.99994492
0.93868248
0.99926044
0.95426342
0.96656866
0.99928302
0.87314291
0.91014359
0.9970607
0.91103885
0.9137875
0.45607263
0.80807677
0.367399
0.99783223
0.85346442
0.99850076
0.92190338
0.9639303
0.9986588
0.85369811
0.9878514
0.99837235
0.7976904
0.36601143
0.75017623
0.3668632
0.81797515
0.96474671
0.60864942
0.75461984
0.45081784
0.99924753
0.99988264
1
1
0.99999997
1
1
1
0.99999913
0.99999423
1
1
0.99999997
0.99982225
0.58551793
0.82707221
0.40722613
0.82038263
0.5637496
0.93917478
0.92977836
0.56888402
0.56888506
0.36619654
0.50397182
0.50179866
0.40236072
0.55407691
0.97301707
0.87855304
0.97172451
0.88131206
0.90247804
0.92651225
0.87346804
0.72412331
0.7179167
0.58006226
0.96270401
0.89088601
0.9646201
0.88304262
0.32022434
0.43694083
0.53326759
0.56259182
0.66232079
0.72950161
0.13899813
0.66677983
0.36066798
0.89546681
0.87104646
0.98399358
0.94326066
0.94094753
0.91331867
0.93275075
0.98671267
0.32793054
0.58659077
0.82373563
0.50035276
0.80736481
0.93861989
0.93066713
0.99805126
0.99573144
0.99236428
0.9935498
0.96570091
0.98979239
0.30924742
0.69759436
0.96242627
0.87897962
0.13137111
0.2387447
0.79437548
0.9303148
0.91087637
0.85236103
0.61780655
0.99199594
0.99214544
0.27318064
0.68130168
0.86733541
0.95866341
0.9587657
0.87115593
0.97293647
0.98651437
0.92705275
0.71940565
0.90214002
0.8973692
0.96854958
0.9707821
0.85659127
0.9718666
0.88310027
0.91636544
0.80171993
0.96861562
0.88266576
0.87549277
0.79442779
0.31650106
0.98651294
0.95574997
0.99458225
0.92452808
0.72681259
0.72697141
0.96479567
0.89250685
0.9649101
0.89258207
0.084465407
0.24257987
0.83770849
0.94561321
0.92235915
0.61692122
0.24623338
0.48353296
0.6943037
0.59664318
0.16774634
0.27779347
0.56850983
0.74228595
0.57681626
0.84845264
0.61287386
0.81822053
0.57859711
0.71076642
0.69925157
0.99323448
0.99878173
0.99247534
0.17605447
0.19232613
0.36708265
0.99098963
0.92838053
0.9621492
0.4572089
0.60719456
0.21904791
0.41562395
0.071805499
1
0.9999996
1
1
1
1
1
1
1
1
1
1
1
1
1
1
1
0.5571325
0.39273842
0.23337562
0.59925824
0.59864642
0.09748524
0.56145653
0.391497
0.38295283
0.58785602
0.54981599
0.56145941
0.39152318
0.38312303
0.15587029
0.20943879
1
1
0.93658142
0.94524679
0.95013576
0.95053146
0.98145396
0.99851778
0.98152917
0.99805177
1
1
1
1
1
1
1
1
1
1
1
1
1
1
1
1
1
1
1
1
1
1
1
1
1
1
1
1
1
1
1
1
1
1
1
1
1
1
1
1
1
1
1
1
0.99999999
1
1
1
0.065686604
0.22866383
0.074766414
0.37708949
0.31308066
0.81271845
0.57645364
0.36325538
0.40889528
0.34593131
0.57617582
0.45567299
0.32773114
0.55748172
0.49162144
0.40823546
0.40338851
0.57587328
0.57219354
0.57584898
0.57119128
0.42319343
0.42063595
0.6731986
0.27011241
0.39175061
0.56150481
0.2751151
0.71018792
0.38573245
0.22451544
0.64626309
0.60727024
0.2795015
0.58819583
0.30776397
0.54731416
0.83017803
0.97252991
0.83094754
0.57588606
0.57259215
0.4082827
0.40387205
0.57588963
0.57275724
0.40826456
0.40392437
0.57586985
0.57286332
0.57587168
0.57286294
0.42063094
0.42070944
0.80022049
0.81593224
0.39151218
0.56145704
0.94095593
0.90969572
0.93653105
0.8908572
0.96298785
0.59560775
0.79734695
0.59594376
0.99456625
0.87680029
0.35638487
0.99775423
0.99836981
0.8309521
0.99997971
0.830948
0.57586888
0.57286344
0.40826083
0.4039241
0.57586848
0.57286364
0.57577338
0.57277105
0.40819832
0.40384019
0.57581491
0.5728045
0.42071039
0.42060243
0.80023413
0.29365812
0.56139956
0.39148788
0.66012531
0.26777898
0.21878555
0.60236678
0.60234868
0.59594534
0.99879096
0.59590321
0.99893677
0.97195091
0.99992282
0.79670945
0.82391742
0.99994332
0.99776775
0.99999442
0.99998155
0.83078186
0.99754508
0.58858505
0.99999849
0.96219396
0.99990495
0.99968045
0.35919097
0.9559721
0.98099757
0.75077717
0.99985223
0.99993898
0.99741739
0.99928042
0.61783218
0.90828054
0.10381015
0.0893308
0.59167415
0.60561017
0.79107748
0.79844811
0.99005618
0.99999589
0.32264483
0.98982894
0.99646318
0.3103675
0.99995236
0.92979562
0.85372075
0.9995199
0.85549689
0.79006777
0.96774404
0.31860092
0.084226398
0.99584923
0.98759098
0.62056362
0.98859299
0.58159622
0.61826476
0.83461068
0.11205301
0.062647937
0.89761811
0.41045645
0.36825326
0.40570326
0.3886636
0.4071398
0.4345226
0.40318877
0.45350589
0.33508292
0.99997923
0.8660635
0.41842623
0.1704194
0.99653996
0.73488601
0.50701989
0.99407881
0.37998338
0.99999866
0.99965665
1
1
0.99999991
0.99943353
0.99993534
0.99993601
0.99997309
0.99999976
0.99998811
0.99840968
0.99988971
0.99874119
0.95980514
0.96155258
0.86242383
1
1
1
1
1
1
1
1
1
1
1
1
1
1
1
1
0.94366362
0.94366212
0.98756376
0.98755688
0.94358115
0.81028624
0.93804729
0.94013264
0.39324106
0.30268518
0.56236015
0.94046742
0.81509962
0.32597599
0.32281253
0.14085353
0.51579124
0.71654283
0.88579898
0.71613172
0.049831041
0.098573662
0.5977232
0.59809484
0.28352002
0.8856874
0.71552151
0.7157643
0.68853866
0.80132687
0.53666088
0.98754696
0.94354056
0.94354186
0.98754684
0.94354409
0.81477485
0.94038807
0.94039204
0.39148686
0.38303087
0.56143576
0.81477632
0.61333473
0.26549808
0.71541986
0.88565501
0.71544312
0.59756855
0.58928167
0.59756002
0.5891581
0.88566139
0.7154628
0.71545658
0.98754708
0.94354522
0.94354521
0.98754709
0.94354516
0.81478622
0.94039189
0.39152403
0.38312382
0.56146032
0.81478578
0.71546035
0.88566168
0.71545969
0.88566138
0.71545771
0.71545919
0.91210933
0.69718514
0.38968349
0.41341533
0.070099348
0.18614916
0.08573862
0.089251388
0.33108658
0.31119283
0.32280185
0.083612833
1
1
0.99999999
1
1
1
1
1
1
1
1
1
0.99999934
0.99996559
1
1
1
1
1
1
1
1
1
1
1
1
1
1
1
0.99993616
0.99999181
0.99920533
0.97045535
0.98883433
1
1
0.99999945
0.99999999
0.99999177
0.98091447
0.97013518
0.99999724
0.99996032
0.99999999
0.99999973
0.99999327
0.99999999
0.9999911
0.99312125
0.99611761
1
0.99999945
0.99999964
0.99999263
0.99999999
0.9999999
0.92076692
0.9799221
1
1
1
1
0.99999999
1
1
1
1
1
1
1
1
1
1
1
1
1
0.99901484
0.99977715
0.99467934
0.99997384
1
1
1
1
1
1
1
1
1
1
1
1
1
1
1
1
1
1
1
1
1
1
1
1
1
1
1
1
1
1
1
1
1
1
1
1
1
1
1
1
1
1
1
1
1
1
1
1
1
1
1
1
1
1
1
1
1
1
1
1
1
1
1
1
1
1
1
1
1
1
1
1
1
1
1
1
1
1
1
1
1
1
1
1
1
1
1
1
1
1
1
1
1
1
1
1
1
1
1
1
1
1
1
1
1
1
1
1
1
1
1
1
1
1
1
1
1
1
1
1
1
1
1
1
1
1
1
1
1
1
1
1
1
1
1
1
1
1
1
1
1
1
1
1
1
1
1
1
1
1
1
1
1
1
1
1
1
1
1
1
1
1
1
1
1
1
1
1
1
1
1
1
1
1
1
1
1
1
1
1
1
1
1
1
1
1
1
1
1
1
1
1
1
1
1
1
1
1
1
1
1
1
1
1
1
1
1
1
1
1
1
1
1
1
1
1
1
1
1
1
1
1
1
1
0.26116856
0.083846224
0.2130613
0.52615053
0.32835161
0.4266432
0.18018178
0.78834981
0.88662711
0.82209051
0.82309605
0.82310444
0.38607278
0.45779708
0.53746975
0.4084619
0.37829633
0.57579352
0.54686065
0.57591474
0.5143926
0.82305948
0.8230612
0.32284387
0.40680819
0.48185701
0.79132685
0.55838069
0.40820432
0.40259025
0.57578515
0.56219136
0.57581533
0.56864379
0.82316761
0.82315172
0.82308965
0.82312483
0.58735787
0.82894078
0.421437
0.82876483
0.58615246
0.94126746
0.94127108
0.98754741
0.94353994
0.94354131
0.94354674
0.98754678
0.42104713
0.58562641
0.82847445
0.58589019
0.82849564
0.94132669
0.94131576
0.86698261
0.9585733
0.95849623
0.26967547
0.67144033
0.86637461
0.39199383
0.56201971
0.81478762
0.94038676
0.94039243
0.81496529
0.27036981
0.67150484
0.88700264
0.96557932
0.86645404
0.21667621
0.55883189
0.58664686
0.31026037
0.50070163
0.31986636
0.45404454
0.3620486
0.496454
0.18345825
0.65157186
0.7513408
0.32798035
0.30738174
0.72513087
0.31180992
0.97324856
0.8891721
0.97197114
0.88317672
0.97389792
0.88311754
0.97196724
0.98489499
0.97233257
0.88310945
0.97411818
0.89443461
0.97197171
0.88308448
0.72617537
0.72586949
0.96497355
0.96499293
0.89276379
0.89272454
0.725566
0.60885478
0.72556503
0.96497952
0.89266903
0.9649821
0.89267156
0.18164778
0.29503862
0.069289447
0.50658658
0.29321281
0.42162206
0.46112171
0.5773736
0.69669528
0.67577691
0.11348568
0.59994498
0.36541302
0.79683266
0.68529172
0.87602093
0.94600785
0.83068826
0.9487296
0.93859959
0.99327597
0.98294735
0.83093942
0.95036841
0.95032185
0.8231744
0.82317514
0.40828146
0.40390216
0.57588317
0.57284844
0.57588759
0.57282376
0.82316917
0.82317269
0.40826779
0.40392411
0.57587848
0.57285781
0.57587454
0.57286156
0.82316021
0.82316134
0.82316582
0.82316317
0.58562591
0.82847709
0.42068241
0.8284823
0.585663
0.94133445
0.94133315
0.98754711
0.94354522
0.94354517
0.98754711
0.42069496
0.58568047
0.82849098
0.58567133
0.82849031
0.94132834
0.94132907
0.92259413
0.97663661
0.94095199
0.9918182
0.9991155
0.99687458
0.391505
0.561442
0.81478568
0.94039629
0.94039789
0.94039698
0.8147797
0.98417503
0.99685625
0.96360732
0.98897438
0.99970417
0.99889697
0.98301496
0.9961932
0.99011205
0.99822158
0.99967483
0.99920286
0.99224922
0.97257077
0.8832122
0.9968045
0.99905474
0.88321656
0.97275225
0.99857768
0.99926903
0.97274295
0.88321131
0.99914009
0.97275257
0.88321251
0.72560677
0.72561488
0.96497488
0.8926675
0.964976
0.89266699
0.7256214
0.72562171
0.96497299
0.8926652
0.96497307
0.89266549
0.71359546
0.5958149
0.71414462
0.9211047
0.87903264
0.95604188
0.59593852
0.7144313
0.71442413
0.98748577
0.99269431
0.99113727
0.68643099
0.93018275
0.80072023
0.25233267
0.67836448
0.52613317
0.99335503
0.98856642
0.97188372
0.99957776
0.99940329
0.99972396
0.95038304
0.83095207
0.95038312
0.99996951
0.9997846
0.99978406
0.83094894
0.95038212
0.95038227
0.82315963
0.82315939
0.40826044
0.40392433
0.5758665
0.57286235
0.57586812
0.57286372
0.82315822
0.82315917
0.82308374
0.82312556
0.40823335
0.40388954
0.57586061
0.57285593
0.57584516
0.57283813
0.82315477
0.82314551
0.585681
0.82849127
0.4207087
0.82849111
0.58567937
0.9413276
0.94132754
0.94349063
0.94353188
0.98754124
0.98754594
0.58558467
0.82846005
0.42070111
0.82847853
0.58567324
0.9413117
0.94132214
0.92259557
0.97663614
0.27511316
0.67303587
0.95875736
0.86736634
0.8147239
0.94034423
0.94037444
0.39150699
0.5614562
0.94038461
0.81478328
0.85849324
0.95500125
0.26888037
0.67126805
0.95840365
0.86635518
0.21881092
0.6027321
0.60239051
0.30574824
0.71561654
0.30626517
0.71749298
0.99678635
0.96814073
0.97270079
0.88318655
0.97831429
0.88315095
0.97211179
0.97372164
0.97193829
0.88308069
0.97512028
0.88309382
0.97200698
0.60891248
0.72561999
0.72561968
0.60891006
0.964973
0.89266495
0.96497303
0.89266493
0.72558148
0.72560608
0.96491844
0.964962
0.89264273
0.89265793
0.71443409
0.59594497
0.71443383
0.99337873
0.99890587
0.99338908
0.71440299
0.59593426
0.7144259
0.99339041
0.99893677
0.99339079
0.90940142
0.98876071
0.95704689
0.25614335
0.18074137
0.37518339
0.99967859
0.99931256
0.99777086
0.68000647
0.92767822
0.86886487
0.93765974
0.90940661
0.97196172
0.99946376
0.99998791
0.99985439
0.99323884
0.99967877
0.99877921
0.99999976
0.99999971
0.99999935
0.99978448
0.99998135
0.99978056
0.82949998
0.95029867
0.94965697
0.99953357
0.99003169
0.99747164
0.73199824
0.79292827
0.89015428
0.19099513
0.086542099
0.36993476
0.9999992
0.99998322
0.99999587
0.99111751
0.98115238
0.99615997
0.99998101
0.99999213
0.99999897
0.9988362
0.99996901
0.99985502
0.15984461
0.55371692
0.26490837
0.90896912
0.86731591
0.76837498
0.15972432
0.26142428
0.15965932
0.35900681
0.9296745
0.99112294
0.96221619
0.60241281
0.90281835
0.82194455
0.99947103
0.99880612
0.99648328
0.99999564
0.99998309
0.99999482
0.99951878
0.9894527
0.99746312
0.99983949
0.99585037
0.99879611
0.79756224
0.82649769
0.91775483
0.79495551
0.7909175
0.59796388
0.083867875
0.76597853
0.95570004
0.90034711
0.60427408
0.61787881
0.45719582
0.997547
0.96723061
0.98985153
0.99999427
0.99999376
0.99993504
0.59804668
0.59530789
0.79098278
0.99746304
0.96571101
0.98945332
0.98292185
0.99883403
0.99335845
0.60752109
0.5274254
0.76894809
0.99997765
0.99993631
0.99979152
0.87654537
0.98106061
0.96184487
0.95766092
0.85541203
0.95837534
0.99975833
0.99747456
0.99934843
0.85583779
0.9562129
0.95808705
0.90714777
0.9069175
0.96525219
0.91277052
0.9130718
0.80436751
0.43152465
0.36701344
0.32991135
0.17909003
0.084381556
0.082300963
0.31917954
0.99927893
0.98762132
0.99717393
0.99784766
0.99035902
0.9984301
0.80436607
0.80123622
0.91306129
0.99069544
0.98814542
0.99605976
0.42089142
0.60849078
0.44852387
0.45829565
0.61826859
0.79928066
0.89294543
0.82102666
0.32679304
0.11610733
0.2639858
0.23766327
0.093267315
0.18583072
0.079125266
0.16308121
0.30812041
0.38122961
0.18429744
0.50589242
0.092247178
0.084214631
0.78014279
0.78811226
0.59258351
0.10690042
0.20333988
0.99999993
0.53699103
0.79851736
0.15069256
0.8687958
0.26054322
0.8264822
0.99999889
0.99999996
1
0.99999997
0.9999948
1
0.99994778
0.99999616
0.45829959
0.99998308
0.99794137
0.069787736
0.18272742
0.37878726
0.56807349
0.99998522
0.99935362
0.98949393
0.95147443
0.23144454
0.19834962
0.99666231
0.65746141
0.90602155
0.63713095
0.80397373
0.57021981
0.99051281
0.97554372
0.79289539
0.99999997
0.9999587
1
1
1
1
1
0.4296448
0.26109897
0.31715214
0.77248509
0.4216784
0.61273943
0.26557257
0.17793501
0.37507186
0.77314076
0.4228158
0.53815476
0.55499786
0.32358662
0.48615289
0.30862777
0.39536239
0.074160721
0.11421298
0.67830174
0.55280543
0.35637857
0.25593135
0.77302597
0.68005224
0.53445284
0.88060051
0.56042161
0.80236788
0.5356777
0.48461648
0.6871184
0.15896602
0.61782917
0.69234839
0.37312824
0.36702564
0.97603943
0.99097872
0.99387548
0.4514063
0.87537543
0.11943178
0.19335202
0.059877911
1
0.99999967
0.90132146
0.9712775
0.99924959
1
1
1
1
0.99938569
0.99818148
0.99889709
0.99970278
0.96631112
0.83065039
0.93637263
1
1
0.99999147
0.99999997
0.99996162
0.99999226
0.99999794
0.99999999
1
1
1
1
1
1
1
1
1
1
1
1
1
1
1
1
1
1
1
1
1
1
1
1
1
1
1
1
1
1
1
1
0.99999991
0.99997434
0.99999999
1
0.99999996
0.99997508
0.99989045
0.99994044
0.99999351
0.99999567
0.83981082
0.94097171
0.99999988
0.99999955
0.99964442
0.999991
0.99999803
1
1
0.99997441
0.99999438
0.99518601
0.99871277
0.99940653
0.99988173
0.9691103
0.94432751
0.97380135
0.38958267
1
0.99999999
0.99996686
0.99999961
1
0.99999997
0.99879405
0.99972002
0.99849897
0.99915923
0.99984262
0.97299674
0.98735468
0.97624782
0.99361935
0.9908297
0.99224724
0.98673847
0.98151395
0.99259895
0.99243479
0.99457353
0.99377361
0.97819417
0.98266735
0.98902588
0.98745699
0.98947551
0.98255226
0.99287572
0.99834369
0.99978266
0.99999986
0.9999984
0.99997611
0.99994036
1
1
0.872524
0.99988824
0.99925305
0.99779047
0.23768048
0.24057003
0.63593159
0.9530001
0.97347157
0.9999991
0.99999897
0.99999996
1
1
1
1
1
1
1
1
1
1
1
1
1
1
1
1
1
1
1
1
1
1
1
1
1
1
1
1
1
1
1
1
1
0.99999996
1
1
0.99999958
0.99999988
0.99999801
0.99994283
0.99992514
0.99931367
0.96904092
0.98999968
0.93262444
0.91624232
0.77847216
0.87365429
0.87257172
0.91682378
1
1
1
1
1
1
0.99999951
0.99999998
1
1
1
1
1
1
1
0.99949565
0.99689858
0.98761355
0.99698787
0.99836117
0.99849409
0.99938827
0.98986936
0.63980516
0.26497458
0.99901947
0.99988956
0.99992975
0.99990087
0.76727571
0.98895522
0.91908295
0.97869529
0.99938256
0.98791581
0.99990097
0.99999234
0.99551124
0.99996061
0.85045841
0.42549127
0.87608963
0.71223769
0.44651728
0.89330467
0.70735549
0.87331034
0.45073659
0.46242018
0.21443041
1
1
0.96079424
0.70160026
0.86388608
0.9502451
0.86295794
0.99963276
0.99981623
0.99696993
0.99920669
0.9996276
0.9944789
0.99998514
0.99998378
0.99982387
0.99165629
0.99972888
0.99996817
0.99997089
0.99997545
0.99990054
0.94676031
0.90319867
0.99870459
0.99310114
0.89143325
0.96887565
0.99947315
0.99083483
0.978152
0.96551098
0.85471193