/*--------------------------------*- C++ -*----------------------------------*\
  =========                 |
  \\      /  F ield         | OpenFOAM: The Open Source CFD Toolbox
   \\    /   O peration     | Website:  https://openfoam.org
    \\  /    A nd           | Version:  12
     \\/     M anipulation  |
\*---------------------------------------------------------------------------*/
FoamFile
{
    format      ascii;
    class       volScalarField;
    location    "1";
    object      p;
}
// * * * * * * * * * * * * * * * * * * * * * * * * * * * * * * * * * * * * * //

dimensions      [0 2 -2 0 0 0 0];

internalField   nonuniform List<scalar> 
94133
(
-5.7880933
4219.7726
825.69737
4612.2926
8876.8339
804.48394
4392.8622
1131.163
4362.1239
1232.046
4658.5822
9015.2793
1208.8786
4404.2291
2015.9827
4101.4875
2430.335
4341.9536
7368.4442
2139.7958
4138.1395
7339.408
4185.6176
2597.9979
3595.6829
5189.6584
2895.7331
3317.6191
4278.4105
2656.5213
3738.4701
8466.3895
-2105.8263
-6696.911
25250.179
11185.087
-1539.1812
-7674.3033
8775.7514
-1999.3727
-6920.4733
16248.92
-15401.438
-31620.783
73468.699
24133.715
-14047.848
-34023.811
17631.154
-14986.593
-31746.775
24938.65
-50396.304
-87403.998
189482.9
45108.642
-47224.576
-92343.143
27626.988
-49544.039
-88000.586
9546.706
-135674.09
-199938.78
414723.28
50557.154
-130200.55
-208019.53
12088.799
-135048.74
-200860.14
-108147.93
-323324.66
-405313.37
661162.71
-47024.634
-315013.43
-412165.16
-101886.37
-319876.81
-403014.77
-330705.96
-477582.67
-662257.63
-719868.39
235847.66
-465063.42
-659088.51
-721108.37
-462855.55
-654032.2
-714772.67
-653245.8
-1115054.7
-1121264.8
-1115691
-2342001.9
-1274555.8
-1137520
-1115636.6
-1089437.1
-1106599.9
-1106859.4
-1087506.2
-1651151.6
-1562912
-1511866.9
-3128568.2
-1881267.7
-1589352.6
-1508555.4
-1620313.4
-1543384.9
-1499978.1
-1512887.3
-1996337.2
-1908103.5
-1846668.2
-3350204.8
-2225906.8
-1935035.3
-1841594
-1962444.6
-1886092.1
-1833016.6
-1853962.1
-2222949.7
-2158047.6
-2102580.3
-3471243.9
-2443299
-2183401.9
-2097324
-2187203.1
-2135074.4
-2088392.4
-2104010.3
-2374430.1
-2332346.3
-2286155.8
-3547664.1
-2586572.8
-2356320.2
-2281386
-2337721.9
-2309061.2
-2271701
-2279028.2
-2472808.8
-2448195.3
-2409823.7
-3596726.4
-2680149.6
-2471348.8
-2405659
-2436128.4
-2424874
-2395319.4
-2395464.3
-2531888.7
-2517625.4
-2484397.9
-3625700.5
-2735792.1
-2540355
-2480690.6
-2494660.6
-2494315.3
-2469877
-2465232.1
-2556779.7
-2547881.5
-2517090.1
-3638144.9
-2759893
-2570455.8
-2513619.5
-2519964.6
-2524583.1
-2502593.2
-2495625.7
-2551728
-2542172.5
-2511328.5
-3635116.9
-2754643.6
-2564713.5
-2507853.9
-2514659.7
-2518855.5
-2496814.5
-2489847.5
-2514759.8
-2500179.9
-2467096.9
-3614405
-2718904.5
-2522848.8
-2463391.5
-2477673.7
-2476742.7
-2452480.8
-2447547.2
-2442317.3
-2418564.4
-2381372.9
-3551194.1
-2647914.5
-2441514.6
-2377260.9
-2405032.4
-2394797.7
-2366518.4
-2365108.1
-2329688.5
-2290808.4
-2248737.9
-3507290.9
-2541284.3
-2314242.3
-2244178.9
-2291970.7
-2266193.5
-2233161
-2235302.2
-2155990.4
-2105146
-2063795.6
-3421233.9
-2371848.3
-2127993.1
-2059121.6
-2115947.8
-2078336.5
-2046730.9
-2045948.2
-1876727.1
-1850950.7
-1831263.6
-3218751.7
-2074741.6
-1866333
-1827294.8
-1827768.4
-1818523.1
-1811476.3
-1787849.3
-1443194.4
-1560587.1
-1590810.7
-1963836
-1528216.8
-1556307.3
-1592508.6
-1350207.1
-1515809.9
-1565485
-1487486.7
-1074793.5
-1352863.7
-1440232.1
286763.2
-1048296
-1320841.8
-1445619.3
-923066.87
-1293304.9
-1403992.1
-1223417.6
-982320.39
-1083617.4
-1476564
1601503.2
-994145.08
-1255484.1
-1391599.4
-860932.39
-1131691
-1429451.4
-1116255.6
-962437
-1799387.3
-1212434.5
-1399959.7
-1575488.9
-1112131.4
-1229166.1
-1772496.7
-1392468.8
-1086578.7
-2024657.3
-1541940.1
-1607550.3
-1784062.6
-1420926.6
-1428154
-2046649.8
-1632965.8
-1191020
-2145762.6
-1758806.5
-1761623.9
-1926327.8
-1602867.6
-1561916.2
-2182176.3
-1744592.9
-1251886.2
-2206607.2
-1854328.3
-1842043.5
-2000983.1
-1688758.4
-1632751.3
-2245850.7
-1767004.6
-1271968.6
-2216479.9
-1875437.7
-1857519.3
-2015708.4
-1706603.6
-1651477.8
-2255555.6
-1711102.8
-1251687.3
-2164383.3
-1836343.8
-1806942.4
-1964031.6
-1662325.2
-1617397.1
-2199538.2
-1552171.3
-1181310.7
-2002460.3
-1698347.9
-1678888
-1824629.2
-1541680.7
-1513417.3
-2018347.8
-1286085
-1150278.5
-1694895.9
-1429646.7
-1525718.9
-1628349.8
-1340911.2
-1362072.1
-1647054.6
-1137504.3
-1253494.2
-1590177.8
-1391178.1
-1486748.1
-1526634.6
-1164967.4
-1372597.1
-1483384.9
-1383195.7
-1523904.8
-1089252.7
-1335707.1
-991672.93
-1353318.5
-1414259.8
-1395076.9
-971516.05
373831.37
-987749.03
-903642.13
1356769.9
-913720.34
-1448168.2
-1436601.4
-1388327.3
-968323.81
428669.71
-735105.19
1226944.7
-891558.48
-685640.1
-1415054.1
-1378183
-1398282.9
-1265802.2
-999110.19
-1222368.1
-839312.27
-1119698.8
-883905.62
-941491.03
-1385362
-1243106.3
-1334491.7
-1141113.8
-1357478.1
-896868.27
-1271447.8
-1251811.5
-1299586.8
-1454777.5
-1363995.8
-1472197
-1507660.5
-1521819.6
-1426116.3
-1480012.8
-1504605.9
-1490681.1
-1519416.8
-1032216.3
-1662964.4
-1233407.3
-1440936.1
-1541975.4
-1161599.6
-1361814
-1558556.1
-1584151.8
-1394539.4
-1446918.8
-1377852
-1583711.8
-1531079.2
-1035338.2
123202.43
-1007640.7
-1594606.3
-1467231
-1481319.1
-1566498.5
-830783.6
-1308775.9
165301.08
-1018132.6
362023.68
-826941.22
-1594789.1
-1573849.2
-1477242
-1518110.8
-1446919.5
-1491901.6
-1361332.2
-1470269.6
-1002377.2
-1291646.1
-1071489.7
-1265660.8
-1558320.5
-1493549.2
-1530935.7
-1341577.6
-1418849.7
-1307586
-1378018.4
-1333693.7
-1076639.8
-1282092.2
-979054.6
-1134265.7
-997368.53
-1201476.7
-1423341.4
-1328304.7
-1438978.7
-1124887.9
-1404411.3
-1254934.2
-1376979
-1274039.5
-929475.25
-1239161.2
-979362.44
-1196624.9
-855814.59
-1143934.5
-1436668.9
-1294420.8
-1395607.5
-1249860.9
-1369293.6
-1202093.2
-1363023.1
-1336596.7
-1471688.5
-1436913.8
-1379959.9
-1463617.1
-1009275.6
-1379107.2
-1236614.9
-1334069.1
-1269926.3
-1211954.1
-1334475.3
-1293335.5
-1214590.8
-937105.44
-992202.08
-1070064
-1449218.3
-1838090.1
-912209.08
2329131.3
-929097.89
-1014398.8
823248.07
-1111526
-1406507.2
-1716488.1
-1572582.7
-905705.36
-715167.49
-1113080.7
-942685.31
-1429410.1
-1547651.9
-1632541.1
-1112435.3
-889339.56
-1027956.4
-1186706.9
-1043625.1
-1389992.3
-1337291.2
-1202995.1
-1658876.8
-1734279.9
-1045923.3
1070978.6
-1093418.3
-1052574.3
-1114911.6
-983412.02
-1315699.6
-1484792.4
-1172008.1
-1408634.1
-1564797.6
-1525440.6
-865769.13
-1542364
-1464264.9
-1507676.6
-1373361.4
-1411809.8
-1367528.1
-1023346.6
-1488530.4
-1531786.8
-1156896.4
-1324174.2
-1248492.5
-1252920.8
-1214677
-1150069.4
-1129452.5
-1076141.7
-1182053.6
-1125377.9
-1069041.3
-1294819.2
-1339089.6
-1392292
-1360396.1
-1222793.7
-1313604.4
-1266107.1
-1229466.2
-1183394.3
-1290671.4
-1188341.6
-623201.05
-942051.79
-583063.67
-906761.48
-677167.57
-928700.6
-546710.24
-630447.56
-903437.57
-910725.87
-597299.96
-916763.08
-541233.58
-636749.04
-1457708.3
-1450180
-1479533.5
-1378842.2
-1469293.6
-1410358.1
-1251572.8
-1455457.2
-1365331.4
-1422154.2
-1350853.8
-1404871.3
-1024586.4
-1471415.5
-340947.09
-568861.52
-892907.96
-881615.48
-404142.52
-822961.77
-342007.21
-876032.27
-834614.18
-819088.93
-384857.75
-1224738.9
-1368902.9
-1383705.6
-1025008
-1370624.1
-1402074.9
-1028757.2
-1145458.3
-1244616.6
-1184507.1
-1126314
-1062444.9
-1026253.6
-1233663.5
-1132497.4
-1099423.5
-1129709.7
-1036445.9
-1008226.6
-1164386.8
-1027337.7
-1050816.8
-970533.59
-1206287.2
-1191079.1
-1254358.4
-1278092.2
-1121962.5
-1371036.2
-1248568.5
-1216051.9
-1661863
-1126184.8
-1501557.1
-1486742.7
-1482172.6
-1455976.7
-1531293.7
-1486059.2
-1488802.1
-1451307.4
-1492567.5
-761155.02
-527737.87
-895089.3
-605298.3
-1287719.5
-1683913.1
-1344084.9
-1554859
-1759578.8
3286.892
4147.037
-128.74367
398.6457
3296.8222
799.46899
3603.4694
933.20126
3447.7805
1149.2555
3711.2439
4623.7807
7744.0339
4367.2372
7571.3602
4632.0401
7801.2614
8985.2162
9031.3553
-140.92079
202.66777
278.86638
454.24776
3629.7372
867.62321
3519.9172
1105.4142
3732.975
1104.9545
3592.432
7681.1013
4479.0964
7678.3998
4664.1746
7860.4238
4515.6043
7683.3889
9099.7968
8991.5824
3403.0048
1003.9166
3475.7512
4391.1783
7543.9713
3315.817
1534.4021
3354.4162
4157.2617
4093.8043
540.43679
570.74735
1307.9237
1494.927
3480.7344
1285.357
3752.5168
1733.5726
3514.2035
2019.4653
3781.4642
7418.6385
4640.7199
7730.9625
4237.4272
6938.363
4502.8308
6947.814
8949.4956
7979.5181
449.1465
694.11733
1405.3966
1527.088
7776.4991
4518.1562
7581.6344
4493.1487
6918.7284
4366.0194
6938.8809
8712.9106
7864.7831
7946.3387
620.06999
1331.8746
3517.0456
1784.6194
3573.3349
7499.9398
4284.5419
6907.466
7872.9824
3239.1773
1759.7206
3328.1258
2979.9923
2874.0101
4001.87
3038.3773
4312.2758
1689.159
2053.9472
3801.694
4618.9923
3481.658
2430.2117
3762.7896
3505.5633
3077.7076
4245.1928
3462.2432
6636.9354
4331.7562
6487.6655
3158.8959
4266.093
3408.8124
4145.9463
7474.3592
4906.9116
4743.0101
2018.1843
2013.9474
4634.481
4328.0404
7427.6751
4744.7122
4781.5236
1845.968
3922.7371
3542.8416
3618.012
3147.0549
6438.287
3213.6881
4291.5347
4982.2443
4041.5048
7780.5118
3517.2403
2548.1116
5943.3311
664.7182
2481.7294
3177.559
-569.2728
-2416.2957
-2932.6455
4789.1666
5886.7944
9335.6255
11735.441
3062.9138
2852.2852
2866.1847
-436.55132
-2776.5426
-86.748169
-3525.7229
3314.4504
-2887.2235
-3836.864
5939.2785
5449.706
19098.093
11826.819
10714.385
3412.6842
-3893.0957
-3633.5164
4916.9501
9684.9971
2868.6076
7324.696
1236.9169
121.38522
3132.563
-330.51973
-3149.9844
-654.11016
-3424.227
9563.0238
17588.713
7024.3195
-394.74643
11228.505
-6406.3376
-2263.6777
-5601.8928
-11112.011
-20903.178
-6329.4341
-22336.205
11541.423
27465.329
14650.039
21328.808
56420.653
28161.984
-7568.7195
-23442.06
-25152.216
14790.416
13315.851
57055.116
28856.818
25368.872
-7264.6622
-25286.219
-24144.166
11986.9
22550.726
251.20669
-1118.8677
15005.837
-5132.0674
-7785.3332
-6374.6502
-2364.2937
-10455.419
-21577.716
-10985.196
-23530.611
21552.898
34471.167
12857.975
-9881.2496
16864.955
-27984.03
-15878.628
-28382.531
-39300.108
-63055.603
-30288.354
-66926.39
25822.802
72730.692
34640.384
42936.247
147719.34
61713.025
-33799.428
-69307.008
-73017.382
35603.099
31059.161
151135.1
63926.884
135946.69
53090.575
-32654.67
-73488.515
-71257.01
27450.419
45916.729
-8241.0918
5936.8805
-11553.333
25751.791
-24972.266
3611.1783
-31542.52
-29192.724
-15701.768
-37573.79
-64134.155
-39376.943
-69549.59
38754.755
44287.323
16810.151
-37862.697
4051.4903
-87366.55
-51410.284
-80015.21
-108991.51
-151712.1
-84640.187
-157949.02
49017.661
184633.07
72897.189
62548.938
334965.41
105581.95
-91809.68
-162087.56
-171234.91
75750.076
160339.51
61764.227
347751.19
111212.65
284108.66
84259.293
-89861.227
-171959.84
-168474.13
52732.199
65704.339
-34439.122
294.61217
-42464.914
21046.461
-82861.832
-25934.758
-96051.917
-81444.155
-51873.456
-106699.54
-156229.39
-110831.77
-165805.17
40472.867
-13546.455
-7318.7386
-113486.94
-85942.993
-235113.13
-137832.74
-184095.99
-266566.91
-328050.37
-195135.58
-339794.99
62004.628
398894.67
113354.78
18466.134
594491.96
94605.682
-207271.47
-344055.5
-351033.08
120212.3
335604.86
87826.671
618382.99
104932.71
486710.44
57376.389
-203743.97
-351544.41
-345319.22
65461.647
24345.677
-108092.97
-42737.502
-123124.17
-56845.906
-224837.97
-133971.48
-240315.08
-190399.32
-139897.03
-260887.37
-329656.55
-267855.07
-318986.56
-342158.4
-258647.37
-276484.05
-54033.662
-285594.83
-133955.76
-293647.1
-375748.98
-535039.99
-326410.77
-389383.69
-564710.8
-618388.98
-400976.34
-627690.67
-19882.851
637100.12
60422.102
-256547.85
493492.91
-205901.54
-411921.39
-631083.77
-633916.85
71274.063
518992.42
22349.067
486409.63
-199633.82
431449.57
-218324.26
-406221.96
-632604.07
-652935.39
-629393.23
-12645.796
-243749.4
-282039.07
-183442.56
-295961.46
-341701.94
-521746.53
-412862.4
-535608.53
-390293.14
-330333.54
-379049.4
-555908.74
-616491.29
-562599.7
-605434.67
-626973.87
-307732.15
-539630.42
-558719.92
-406873.71
-890834.99
-493278.75
-637611.92
-936168.34
-991933.32
-663401.92
-709157.93
-999473.36
-1010732.1
-716894.07
-1012135.9
-385899.2
275606.08
-369475.01
-911490.46
-1302299.5
-1081269.1
-722343.86
-1013372.3
-1014733.2
-368248.4
297174.53
-357003.34
-1644905.6
-1113602.4
-602935.18
-932602.34
-731705.15
-717234.16
-1014049.8
-1012663.7
-1008265.2
-371168.72
-886262.11
-624435.4
-519623.62
-632932.19
-926189.34
-980967.35
-910150.1
-967039.98
-705883.56
-657201.83
-695160.49
-989268.64
-1003111.6
-977451.69
-993875.71
-1005461.7
-635894.8
-967004.54
-974754.22
-1061217.9
-1484772.2
-1091531.5
-1115921.6
-1497584.1
-1465852.3
-1116974.7
-1115962.7
-1453285.5
-1424431.9
-1115137
-1418246.5
-1096529.1
-1886532.4
-1330476.2
-1543578.7
-2537616.3
-1864219.2
-1116292.9
-1416991.7
-1415159.8
-1374358.6
-944647.76
-1135466.5
-3034030.6
-1919740.3
-1439084.9
-1609746.1
-1110718.6
-1109628.7
-1414402.2
-1400980.1
-1408275.8
-1068571.1
-1512114.5
-1105852
-1048198.5
-1084282.4
-1508052.6
-1457197.2
-1420461.6
-1419619.4
-1106854.3
-1089671.9
-1098328.1
-1441897.1
-1411370.4
-1414193.3
-1404996.6
-1405750.8
-1083256
-1416251.6
-1413057.5
-1595758.5
-1863938.6
-1608197.5
-1570199.7
-1880627.3
-1840683.2
-1555283.2
-1520913.1
-1823421.8
-1781875.2
-1513563.1
-1772754.3
-1656887.2
-2632987.4
-1985456.3
-1924674.4
-2817690.2
-2251378.1
-1509361.9
-1770282.7
-1766442
-2041315.9
-1534878.9
-1725819.7
-3308560.8
-2307060.9
-1736262.7
-1991025.3
-1493227.7
-1502322.2
-1765473.8
-1747182.4
-1759223.8
-1625461.3
-1890666.2
-1561425.5
-1527118.6
-1521179.7
-1890320
-1830528.6
-1795379.4
-1787622.3
-1506802.1
-1513815.3
-1501015.4
-1809828.6
-1765560.1
-1778289.6
-1760789
-1756985.4
-1517408
-1783498.6
-1777642.9
-1934112
-2106984.2
-1953674.2
-1917206.9
-2134441.5
-2110787.2
-1900192.1
-1858498.1
-2095901.4
-2057275.6
-1849243.5
-2048387.8
-1994022.2
-2860830.1
-2318346.8
-2164056.2
-2960701.5
-2475727.8
-1842604.5
-2045835.4
-2041625.9
-2373658.6
-1785354.7
-2059380.9
-3446254.1
-2531892.9
-1900478.5
-2224013.3
-1823022.4
-1835142.1
-2040528.8
-2022390.5
-2034097.1
-1960096.9
-2128434.3
-1906452.4
-1869377.6
-1863730.5
-2139172.3
-2098463.5
-2053584.2
-2057353.3
-1841639.6
-1854611.4
-1837059.7
-2080607
-2040119.5
-2050090.2
-2034927.3
-2031787.9
-1859660.7
-2053623.8
-2049245
-2154079.3
-2270338.7
-2183516.1
-2164620.8
-2304984.2
-2299020.5
-2150653
-2113663.5
-2287799.7
-2256138.2
-2105053.2
-2248500.1
-2209845.7
-2986714.7
-2518885.2
-2322285.9
-3049514.1
-2626069.8
-2098440.9
-2246364.3
-2242611.3
-2574360.6
-1930831.6
-2268246.5
-3531511.3
-2678619.3
-2004515.9
-2376684.2
-2079579
-2090681.9
-2241444.8
-2225169.9
-2234489
-2173843.4
-2285352.9
-2151845.2
-2104172.3
-2111416.2
-2305620.6
-2285156.3
-2229511.4
-2246641.2
-2096360.2
-2104959.7
-2091011.8
-2271585.3
-2238826.9
-2242636.1
-2232653.8
-2231952.6
-2107817.5
-2243408.1
-2241335.6
-2301478.4
-2376978.6
-2337832.1
-2335734.2
-2417650.9
-2425330.4
-2325395.3
-2295473.9
-2417233.1
-2391939.5
-2288172.8
-2385543.3
-2352685.3
-3066360.8
-2654347.3
-2426105.4
-3106892.2
-2722682.9
-2282560
-2383875.6
-2380755.5
-2706588
-2024272.4
-2405954.9
-3586549.3
-2774144.9
-2071932
-2476834.2
-2265607
-2274274.1
-2379565.2
-2365167.1
-2372185.6
-2315492.3
-2388518.5
-2321634.7
-2263603.3
-2283686.6
-2415626.5
-2410646.8
-2346472.4
-2374095.2
-2278212.1
-2280440.9
-2271746.3
-2400639.2
-2374919.6
-2372845.6
-2367607.6
-2369379.3
-2280563.3
-2371230.4
-2371107.2
-2396474.6
-2442293.3
-2438480.2
-2448993.4
-2486916.1
-2503601.1
-2441516.9
-2417522.4
-2497590.7
-2476708.4
-2411387.5
-2471196.8
-2444941.5
-3117497.6
-2740996.2
-2489584.7
-3141912.9
-2781753.1
-2406850.3
-2469895.3
-2467290.6
-2791947.8
-2084418.2
-2495456.4
-3620105
-2832673.8
-2113088.6
-2538288.2
-2391650.6
-2398163
-2466093.9
-2453048.6
-2458398.4
-2407712.2
-2451868
-2434164.3
-2368305.1
-2397989.8
-2483326.8
-2488442.8
-2418596.3
-2453127.4
-2400579.3
-2397289.8
-2393025.9
-2480834.5
-2459977.2
-2453746.5
-2451829.5
-2455388.6
-2395198.3
-2450491.7
-2451691
-2453262.7
-2474139.3
-2498517
-2516726.4
-2520900
-2542179.2
-2511089.5
-2490987.9
-2537266.5
-2518729
-2485638
-2513695.3
-2500299.7
-3147752.5
-2791604.2
-2520424.3
-3158939.9
-2810712.4
-2481887.3
-2512593.4
-2510281.2
-2842454.4
-2119955.2
-2548562.9
-3636445.9
-2861234.9
-2133165.9
-2568376.1
-2467881.4
-2472907
-2509084.9
-2496768
-2501207.8
-2462463.3
-2482904.1
-2501504.5
-2430680.1
-2466399.8
-2516547.5
-2526808.8
-2454036.6
-2492111
-2474289.8
-2467344.2
-2466008.7
-2520444.2
-2502193.9
-2493705.5
-2493553.3
-2498086.4
-2463802.6
-2489588.5
-2491477.7
-2476921.1
-2476696.5
-2524313.6
-2546192.5
-2523444.6
-2545208.2
-2541405.8
-2523144
-2540462.8
-2522324.3
-2518171.8
-2517380.8
-2523345.5
-3160715.8
-2813057.3
-2522997.6
-3159888.6
-2812507
-2514814.3
-2516318.3
-2514063.9
-2864043.4
-2135204.6
-2571452
-3637334.4
-2863088.8
-2134338.3
-2570348.1
-2501385.2
-2505731
-2512868.1
-2500690.7
-2504963.7
-2486084.7
-2484971.7
-2530801.6
-2457695.5
-2496167.8
-2518849.6
-2529789.5
-2456595.1
-2495156.3
-2506636
-2497873.4
-2497929.6
-2523626.8
-2505803.6
-2496903.1
-2497071
-2501817.8
-2493656.8
-2492645.9
-2494642.9
-2472463.4
-2448876.1
-2519132.8
-2540528.9
-2494227.2
-2513088.7
-2535695.6
-2517383
-2507703.2
-2488256.9
-2512409.7
-2483057.4
-2518689.3
-3157576.7
-2809245.4
-2495728.9
-3143734.9
-2786752.8
-2509050.6
-2481879.8
-2479455.2
-2859476.7
-2131672.4
-2566484.8
-3621735.8
-2837463.2
-2115839
-2543735.8
-2495622.7
-2499959.2
-2478250.7
-2465692
-2470391.4
-2481009.2
-2457739.2
-2525120.5
-2452187.5
-2490428.5
-2490085.8
-2497718.7
-2426385.7
-2462688.1
-2500836.4
-2492095
-2492130.1
-2490820.2
-2471552.3
-2463856.7
-2463042.3
-2467297.5
-2487906.8
-2460100.8
-2461687.7
-2436708.5
-2387378.9
-2481641.3
-2499307.2
-2430113.5
-2443088.7
-2493647.5
-2473631.8
-2436346.5
-2414101.7
-2468320.8
-2408352
-2483600.6
-3136211.2
-2775818.7
-2435243.4
-3095405.5
-2727589.6
-2464599.7
-2406957.1
-2404186.1
-2826245
-2107582
-2532155.3
-3571660.1
-2778459.9
-2069306.2
-2484127.4
-2450661.6
-2455568.2
-2402960
-2389592.2
-2395183.6
-2445940.3
-2397231.6
-2483954.3
-2413402.6
-2448755.3
-2426719.1
-2427756.5
-2360200.1
-2391840.1
-2456854.9
-2449676.2
-2448435.6
-2419312.9
-2397019.3
-2391787
-2388919.1
-2392182.3
-2446135
-2389075.9
-2389796.9
-2366118.1
-2287474.8
-2408160.1
-2419095.6
-2326623.1
-2329590.3
-2411900.2
-2388753.4
-2320779.3
-2294707.9
-2382836.9
-2288289.5
-2414333.7
-3076493.1
-2707311.3
-2338584.6
-3038063.6
-2634387.9
-2378497.1
-2286644.9
-2283465.7
-2758233.3
-2052335.3
-2463774
-3515604.7
-2688055.4
-2003946.7
-2390326.8
-2363644.4
-2369535.5
-2282179.2
-2267896.3
-2274227.6
-2376533.9
-2300888.7
-2403770.7
-2337448
-2367506.7
-2324787
-2314128.6
-2252492.8
-2276447
-2371561.2
-2367047.1
-2363529.5
-2303302.3
-2276725.7
-2274583.3
-2269029.2
-2271263.6
-2364673.9
-2273347.6
-2272787.6
-2255999.1
-2137937.2
-2293492
-2293244.8
-2169173.8
-2161037.6
-2283887.8
-2256959.2
-2150726.9
-2123096.6
-2250420.2
-2116637.4
-2307811.7
-3027245.6
-2606729.1
-2191568.6
-2966566.7
-2499249.4
-2245487.7
-2115016.6
-2111740.7
-2660473.3
-1986329.5
-2360548.5
-3450922.4
-2552091.2
-1909180.3
-2245673.6
-2229759.8
-2236205.3
-2110320.9
-2096347.9
-2101713.6
-2270047.8
-2152027.4
-2277651.9
-2217698.4
-2239388.4
-2167999.1
-2144218.7
-2088129.9
-2104472.7
-2238763.5
-2237068.3
-2230982.8
-2131702.9
-2103830.9
-2101450.8
-2095363.7
-2098442.3
-2236184.4
-2100985.7
-2099602.7
-2088044.6
-1896272.6
-2117839.4
-2108385.3
-1924310.2
-1921760.9
-2098202.2
-2071489.8
-1914932.8
-1897499.3
-2065317.2
-1893449.8
-2141953.9
-2935866.2
-2451208.8
-1948085.6
-2797456.7
-2251259.7
-2060602.1
-1892529.7
-1890017.1
-2504113.2
-1873425.2
-2196089.1
-3286403
-2302762.7
-1717092.4
-1995360.5
-2045779.7
-2050219.2
-1888282.3
-1879607.8
-1877715.3
-2101667.8
-1901916.9
-2090632.6
-2034941
-2050705.6
-1914799.1
-1898158.6
-1837901.3
-1860264.5
-2051731.3
-2047900.8
-2042751.3
-1890332.8
-1875409.4
-1861065.7
-1864010.4
-1873511.6
-2047181.7
-1857268.2
-1858505.8
-1814562.1
-1502766.3
-1844170.3
-1850125.2
-1551634.8
-1618056.8
-1845668.8
-1834664.6
-1628131
-1643157.7
-1831850.6
-1643848
-1861993.5
-2724968
-2158846.4
-1519659
-2150304.8
-1739544.3
-1829162.2
-1645799.1
-1647767.6
-2207357.1
-1636391
-1903405.4
-2620584.5
-1778839.9
-1176159.1
-1498283.2
-1821019.1
-1815993.7
-1645563.4
-1646422.7
-1629414.6
-1812580.1
-1438189.6
-1823054.4
-1757971.6
-1787415.6
-1487458.7
-1573678.6
-1470640.4
-1549886.6
-1811536.9
-1790742.4
-1798654.2
-1588529.6
-1617790.6
-1566695.4
-1595249.2
-1622550
-1784778.7
-1549182
-1562343.1
-1376440.8
-1068905.4
-1412739.4
-1469487.8
-1501829
-1368354.7
-1501759.7
-1556453.2
-1565489.2
-1489428.3
-1587432.4
-1459067.2
-909121.79
-1164237.8
-1077304.8
-1215013.3
-911623.36
-591412.53
-1544567.4
-1520014.8
-1547389.4
-1142164.5
-1358800.1
-1131189
-1334120.9
-1587639.6
-1560076.4
-1590069.4
-1395751.2
-1454796
-1375530.9
-1463148.3
-1550770.4
-1590850.9
-1593388.6
-1543876.7
-1593859.9
-1547351.5
-1547654.2
-883830.92
-1691829.2
-1492109.8
-638890.51
-1483381.8
-1039583.1
-377069.9
-1587517.5
-1523395.2
-1566674.1
-1368371.3
-1459174.6
-1342816.5
-1429442.8
-1271362
-850706.23
-1434622.7
-1469740
-1261126.2
-1293326.8
-1003693.5
-932349.87
-1131468
-1140927.8
-1200894.1
-1080622.8
-1288255.4
-1335124.5
-1350901.4
-1223735.1
-1430786.2
-1428796.3
958833.9
2408880.7
-570979.58
-676224.84
-339346.13
-580031.67
-678769.23
-367224.72
-1450074.6
-1452928.1
-1445962
-1423894.1
-1461564.2
-1441450.1
-1427536.4
643834.84
2625561.6
-158097.46
-385155.57
971317.59
146614.48
-152349.49
-247623.34
562305.96
-1412281.4
-1450759.1
-1443087.8
-1419169.1
-1448384.2
-1418079.5
-1414788.6
-760610.81
-711979.52
-993157.34
-1040609
-938986.21
-867907.43
-1040862.3
-986886.65
-878300.31
-1394981
-1013701.4
-890563.47
-938455.86
-1032145.7
-1005639.7
-1054777.3
-1059585.1
-1021991.6
-1194734.9
-1318643.2
-1479989.6
-1797787.4
2336569.5
-719679.65
-354840.56
-603478.12
-642143.99
-751801.83
-121572.91
-1107800.7
-1010911.5
-1204150.2
-1068916.4
-1061123.2
-1139620.6
-1292041.4
-1444120.5
-1259197.8
-1389849.9
-948844.27
-1714329.6
-1351261.8
-1547071.8
-1492949.5
-1470700.2
-1494407.2
-1545423
-1542474.5
-1553021.1
-1524688.1
2355060.5
2453236.3
-240963.05
169082.48
2165047.1
-1201171.7
-875400.56
-1142502.6
-1149365.1
-1295506.2
-1051694.3
-1235581.5
-1380396.2
-1200246.6
-1390145
-1350879.5
-1530626.8
-1299064.7
-1593569.5
-1398577.4
-1456042.1
-1527595.8
-1446925.6
-1460088
-745579.19
-952156.07
-1677890.3
-1078481.3
-1282181.3
-1117081.2
-1305480.2
-1947113.1
-2140319.5
-1894285.1
-2085192.1
-1061307.1
960531.16
-1142916.7
-1279025.2
808620.61
-1473353.8
-1601019
-1980124.5
-1786075.6
-1152036.3
-1063617
-1499819.4
-1375060.2
-1713105.7
-1761071.6
-1916702.9
-1053801.3
-1333003.4
-1212412.6
-1079250
-1355233.8
-1394730.9
-1327795.5
-1762519.8
-1887179.6
-1406157.8
-1984771.9
-2149880.6
-1995251.5
-1364325.9
-1567112.7
-1380496.4
-1566919.7
-2181146.4
-2267438.1
-2128782.6
-2221311.6
-1369662.4
549355.64
-1526162.3
-1585131.5
387827.02
-1776086.2
-1808745.3
-2121470.2
-1934577.6
-1549129.9
-1447928.1
-1788248.1
-1598177.7
-1967767.7
-1912464.6
-2080258.7
-1403150.3
-1553465.3
-1418089
-1358025
-1567893.7
-1547001.9
-1531795.2
-2034546.4
-2190550.8
-1548702.4
-2140132.4
-2277081.6
-2156669
-1615918.4
-1712030.6
-1615074.5
-1709365.7
-2288651
-2333551.4
-2244292.7
-2291958.9
-1634085.1
390035.16
-1796514.6
-1728571.8
407481.57
-1891152.4
-1948178.4
-2195946
-2015440.6
-1807341.4
-1631849.6
-1899741.7
-1699788.1
-2106938.1
-1994981.2
-2162247.8
-1587978.3
-1657656.3
-1561080.2
-1548781.8
-1674179.4
-1630048.2
-1637573.6
-2164963.3
-2293385.4
-1626749.4
-2216332.1
-2335484.1
-2235293.7
-1730957.6
-1755375.4
-1728936
-1753532
-2343262.4
-2355920.3
-2302183.3
-2314547.4
-1746794.2
409493.67
-1898841.1
-1770352
418223.11
-1923223
-2021341.1
-2219010
-2037149.2
-1907067.5
-1713315.9
-1931277.2
-1731045.2
-2173335.3
-2017182.9
-2185945.6
-1671617.5
-1689798.3
-1636359.6
-1644364.4
-1707712.5
-1656254.5
-1669155.9
-2226948.9
-2341740.2
-1651800.7
-2239734.7
-2356606.1
-2258449.4
-1753742
-1719238.3
-1751834
-1717348.5
-2354491.3
-2329402.3
-2312435.2
-2283537.4
-1768804.1
418676.3
-1922843.1
-1735405.9
416421.88
-1894024.5
-2035667.2
-2185213.8
-1994906.7
-1930996.1
-1729813.5
-1905515.2
-1704640.9
-2182858.7
-1974815.6
-2147237.1
-1688513.1
-1661795.2
-1655864.5
-1667875.6
-1679607
-1628123.8
-1636175.5
-2237581.3
-2354012
-1624998.4
-2206653.8
-2336748.4
-2221880.9
-1696451
-1585989.3
-1694075
-1587086.3
-2311927.2
-2213700.8
-2263836.1
-2159389.4
-1713268.5
415401.09
-1885660.7
-1603120
407845.25
-1771251.4
-1984127.3
-2059292.9
-1866840.3
-1898199.6
-1688153.2
-1786117
-1606225.8
-2124359.1
-1847240.4
-2008345.8
-1644562.2
-1562421.5
-1620254.1
-1626668.9
-1579795.9
-1532577.5
-1533057.6
-2186169.3
-2319916.7
-1531094
-2074979.2
-2226414
-2082077.3
-1531797.3
-1320405.4
-1534765.1
-1347819.6
-2153335.7
-1784633.7
-2099079.1
-1795833.6
-1547521.2
408840.17
-1745867.8
-1316365.2
943654.11
-1440691.1
-1843873.3
-1765168.3
-1665835.5
-1761404.4
-1566418.8
-1455859.3
-1391422.2
-1949348.9
-1650577.8
-1716799.7
-1523485.4
-1362570.6
-1515132.9
-1514473.9
-1396064.6
-1385788.7
-1363148.9
-2012976.7
-2158823.9
-1375604.1
-1715591.4
-1710718.7
-1739379.1
-1244006.6
-1093826.9
-1281587.2
-1151558.5
-1204487.3
-1681765.3
-1142221.8
-1675209.9
-1708592.6
-1653147.7
-1229915
1266380
-1384026.3
-1065924.3
1095335.3
-1135752.9
-1252032
-1398371.6
-1491110.7
-1152839.7
-1240024.9
-1396801.5
-1467226.2
-1642987.1
-1610738.1
-1542101.8
-1397567.5
-1310694.9
-1226976.6
-1044031.5
-1642056.9
-1534310.1
-1512195.6
-1293916.2
-1081501.9
-1372832.9
-1340028.6
-1193320.9
-1359474.3
-1205297.4
-1615786.9
-1558184.9
-1363052.4
-1482286.8
-1503936
-1070288.5
-1130781.2
-1192273.2
-1157540.1
-1639482.9
-1626167.9
-476024.04
-845772.95
-161680.48
-626662.06
-726089.24
285231.2
-1576628.6
-1470152.6
-1521071.6
-1374992.4
-1497368.7
-1489583.5
-1532921.8
-292813.86
2198349.1
58321.197
-1018615.4
2274939.1
-1494651
-789264.64
-680020.95
-893412.95
-568570.3
-1366418.1
-1193060.5
-1527174.7
-1314693.9
-1235718.6
-1236842.5
-1486172
-1651713.2
-1691301.1
-1157651.4
-1321306.6
-1255251.5
-1211918.6
-1130142
-1115051.7
-1210269.4
-1037342.2
-1187675.6
-1058692
-1119301.3
-1277102.1
-1332869.4
-1311405
-1306720.9
-1310581.8
-1282228.9
-1299829.5
-1106029.8
-1007643.6
-1046746.8
-1061717.1
-1129563.4
-1073491.8
-1176673.9
-1072294.8
-1105336.8
-1006525.8
-1007499.7
-1055757.8
-1029726.5
-1098105.5
-1058123.8
-1330007.3
-1369399
-1348025.9
-1400456.1
-1394497
-1390344.5
-1382020.5
-1373314.5
-1360711.1
-1260527.8
-1044371.6
-1184222.1
-1190006.5
-1297790.5
-1291424.3
-1324088.5
-1380897.8
-1372932.2
-1339920
-1359777.8
-1338135.8
-1326994.8
-757051.67
-840299.81
-944805.72
-929969.46
-785065.13
-815391.28
-905234.47
-407818.37
-119246.75
-400639.4
262612.37
-424185.35
-131011.87
-348398.58
-584968.48
-702792.48
-353946.88
-691200.59
-373944.91
-590842.28
-749130.7
-908985.29
-810140.41
-880213.58
-807496.59
-884828.51
-751639.13
-511962.17
334508.05
198994.26
-404395.96
-8724.7557
-347412.18
-505214.6
-1470628.7
-1474067.7
-1493845.3
-1513934.9
-1496791
-1571522.3
-1450644.4
-1421502
-1455325.6
-1436111.2
-1442350.7
-1422973.4
-1460801.4
-1475201.4
-1490850.6
-1498341
-1384714.7
-1368736.3
-1502281.6
-113253.97
1065059.3
-26727.515
234859.62
115129.68
714171.77
163867.8
-315930.2
-870981.71
-452351.09
-678605.62
-345755.81
-797554.48
-384531.13
-156245.57
181845.09
1514098.5
529719.33
-152177.56
-838181.85
-879771.53
-855448.91
-872306.69
-860983.71
-847788.41
-844876.62
-132489.65
1580877.8
-172777.91
724466.49
-97881.7
-104743.65
-327278.25
-670807.18
-802434.94
-461054.76
-791136.68
-423145.53
-344695.07
-1448442.7
-1513386
-1480536.1
-1638267.5
-1398495.8
-1431513.2
-1430712.7
-1392490.8
-1460607.6
-1381874.8
-1410233.7
-1445121.8
-1446693.8
-1469538.2
-1419236.1
-1368749.3
-1373748.3
-1366247.4
-1374782.6
-1027126.9
-1416751.3
-1373666.9
-1385675.2
-1388014.8
-1421549.9
-1374090
-1405957.1
-1425763.4
-1430963.5
-1442613
-1418717.8
-1459023.8
-995124.98
-963936.31
-1065147.7
-945833.57
-1052702.4
-910947.37
-1003473
-974087.01
-838747.49
-983105.5
-848141.87
-1000966
-849894.98
-946179.89
-973363.3
-914715.78
-862581.26
-949274.85
-871003.9
-989786.96
-942644.46
-1002572
-1059283.1
-961638.69
-1012648.4
-960820.47
-1308443.2
-1360880.8
-1371985.3
-1359585.3
-1347721.5
-1329609.3
-1343936.8
-1219219.1
-1258110
-1274759
-1114167.2
-1323515.6
-1189177.6
-1282465.7
-1355068.4
-1305556.4
-1296845.6
-1327941.3
-1323249.8
-1254856.4
-1278877.9
-1348076.6
-1304753.2
-1339268.8
-1307738.6
-1330101.1
-1270688.4
-1182447.9
-1067939.1
-1059326.4
-1152639.8
-1080777.3
-1243879.9
-1269484.1
-1314369.9
-1184892.1
-1305496
-1206693.1
-1229320.4
-1324966.6
-1205154.1
-1391595.7
-1280447.6
-1314712.5
-1211583.8
-1396071.3
-1328839.4
-1085227.4
-1157409.5
-1219677.5
-1110252.9
-1403796.5
-2176164.2
-1622860.7
-1592389.3
-1754548.1
-2257481.1
-1798414.3
-1827810.1
-1389447.8
-1479060.2
-1444213.1
-1597392.7
-1420519.7
-1486876.1
-1478043.8
-1489687.8
-1492913
-1492475.5
-1525589.9
-1491376
-1494861.8
-1494434.2
-1490429.4
-1504564
-1491318.1
-1489068.5
-1493592.6
-1494114.1
-1491027.4
-1483333.7
-1466968.7
-1487722.5
-1483492
-1489423.6
-1454053.6
-1488867
-865873.93
-872876.32
-1077385.1
-960184.99
-958899.66
-684298.9
-1059503.9
-910724.19
-1126811.3
-993607.93
-1079672.9
-840956.11
-904007
-647236.14
-1042670.4
-891217.43
-1067349.3
-1210836.9
-1432385.1
-296396.36
-1533737.3
-1111220.5
-1472352.1
-1236872.8
-1490205.6
-1537719
-1039631.1
-1449378.6
-1545541.2
-1528597.9
-1474415.4
-1400863.1
-1449563.8
-1485556.9
-1331030.5
-1490456.9
-1344948.1
-1392004.6
-1211920.3
-1266794.6
-1335669.4
-1285687.3
-1358559.3
-1316682.8
-1379517.8
-1411846.6
-1185008.6
-1245600.3
-1255047.6
-1322610.3
-1239159.6