/*--------------------------------*- C++ -*----------------------------------*\
  =========                 |
  \\      /  F ield         | OpenFOAM: The Open Source CFD Toolbox
   \\    /   O peration     | Website:  https://openfoam.org
    \\  /    A nd           | Version:  12
     \\/     M anipulation  |
\*---------------------------------------------------------------------------*/
FoamFile
{
    format      ascii;
    class       surfaceScalarField;
    location    "1";
    object      phi;
}
// * * * * * * * * * * * * * * * * * * * * * * * * * * * * * * * * * * * * * //

dimensions      [0 3 -1 0 0 0 0];

internalField   nonuniform List<scalar> 
279700
(
1.2929195
-0.06631791
-0.02253051
-1.1263392
-0.74115266
0.82842789
-0.99220648
-0.25438233
1.1601813
0.053524822
0.27684239
0.10635366
-0.24563954
-0.19079285
0.23101976
-0.29719114
0.20194433
-0.0094006742
-0.12607357
-0.30416152
0.75519532
-0.1664023
0.32022984
-0.60448234
-1.5112921
1.1866227
-0.2430174
0.56803258
-0.73423274
-0.40746914
0.23954959
1.0245799
-0.1218954
0.91899231
-1.5396108
2.0333887
-0.99556026
-0.34103726
-0.075831209
-0.00045428327
0.86372155
-0.66910045
0.42855569
-0.65088868
0.029181971
0.7135641
-0.20511813
0.022491066
0.50547799
-0.17730773
-0.85853289
-0.040952553
0.069954878
-0.6107803
0.33658362
0.092363422
0.15354878
-1.0347509
-0.38523696
1.1431587
-0.17287816
1.5657532
-1.1153829
-0.0090328634
-1.8879215
-0.39867336
2.2853086
0.44747663
-0.43682616
0.063911831
-0.5757024
-0.70324427
0.36584009
0.82472248
0.024930385
1.3709164
2.5535211
-3.4769776
2.8380038
-1.3720139
-1.9124762
-0.57122067
0.69393444
-1.99395
1.5506644
-0.55525526
0.87676252
0.091297391
-2.6890779
1.7231361
2.9785494
-0.096356722
-2.0067406
-0.64721093
0.25996371
-2.8699588
2.273965
0.081019149
0.90316385
-1.8460019
0.18372355
-0.58449799
-0.4257715
0.037288826
2.6358944
1.779329
-4.413433
-1.0445493
3.164933
1.9565355
-1.4424722
-0.59562659
-2.1322629
-0.47594303
1.7411662
0.5818576
0.88164439
-0.28397653
1.0155181
-1.0912866
0.58811335
-0.22800053
2.6855759
2.4633524
-7.5307102
8.2579365
-2.5408598
-3.3348954
-2.4294073
0.60352556
-6.3567041
5.4553152
-0.5947276
3.3224416
-1.5766484
-2.574976
1.8961088
2.2361786
0.019777374
-8.7568557
3.8638114
0.24710313
9.2317999
0.18157679
-4.766881
0.61164572
-2.4915754
-8.5146558
7.1005482
3.1018529
0.19266248
-6.5171813
-0.082527033
-3.1824828
1.7055456
-0.024412923
8.101566
2.7275543
-7.7934877
-2.8831048
7.901629
3.4194099
-3.3711946
-2.5165877
-6.6890073
-0.67549747
5.7426047
0.76542292
3.3739024
-1.8852574
1.9432723
-2.6880746
2.7387688
-0.10823107
9.1422073
-21.503349
6.6278126
21.709648
-7.8989276
-8.0765773
-7.6230846
1.4521287
-17.140964
14.999175
-1.4241811
9.7374794
-9.695728
-2.1147001
-8.5785613
3.7082205
0.67737769
16.00375
1.1310248
-4.4759958
22.615669
-2.0418893
-6.6069639
-10.62166
-25.681895
8.5655895
1.5630792
0.54576062
-10.318694
25.326654
-7.4535004
1.6949828
-22.375432
19.011072
-0.018966965
9.1424315
-14.491786
-0.37150766
-9.9922413
6.9750216
-0.25815906
18.139342
5.6697438
-21.225912
-5.3255893
21.409193
5.9799929
-6.5068406
-7.0890417
-17.22987
-1.1305793
15.456124
0.87978407
9.1139248
-14.829926
2.5324022
-7.2650754
4.2743118
-3.9799742
19.268924
17.16871
-55.391254
9.1749935
54.25946
-15.721598
-9.4900039
1.4618139
-19.756153
-39.592987
34.761419
25.397778
-2.2714068
-33.955496
-8.0791555
-15.8278
9.9660055
5.5539866
42.342805
36.549766
-2.728127
66.825928
-2.7015645
-50.330205
-47.615705
-71.032453
3.5320613
17.23338
0.8764392
-19.610134
69.000992
-20.159923
0.95024042
-52.389624
44.573287
0.27944668
26.746895
-36.732851
-1.1470904
-22.795979
15.24655
-0.62363665
46.05315
10.726547
-58.584356
-15.483516
54.658478
20.283393
-11.600269
-19.820338
-42.009622
-1.9770144
36.429909
2.0945395
25.282792
-40.849905
5.3972551
-20.039431
12.474259
-8.7264906
51.744736
49.029425
-139.79903
5.7054213
128.22235
-42.821133
-0.33679545
6.0168448
-54.539626
-87.659013
72.84943
69.117532
-5.7849291
-82.128609
-16.136344
-34.475716
21.69076
10.696097
100.35398
108.40233
-0.12850878
215.98549
-2.4871615
-134.23038
-187.5415
-184.59631
9.9443712
24.102615
6.5075478
-21.995181
166.03727
-54.830259
1.2243196
-108.93043
95.974751
0.25126429
66.310638
-86.514746
-2.0851437
-45.532827
29.247833
-0.90206856
105.7871
8.9127209
-146.73348
-40.998462
128.57666
54.531034
-4.2882092
-52.750054
-89.917244
-5.6360942
74.894471
6.6549929
66.754116
-70.581917
7.4790587
-38.610878
23.5559
-8.2663857
86.424252
110.74425
-295.74928
-41.39069
250.37748
-91.778044
67.796488
11.215318
-127.55595
-158.0548
129.48011
155.43985
-10.524462
-138.91523
-4.3213476
-63.060543
45.842954
7.2832641
153.17098
216.91267
2.6562773
600.67826
0.40795521
-231.94997
-588.7055
-393.44472
23.001464
-15.355624
4.9355326
43.328376
337.53497
-127.35706
-2.0695165
-188.71388
156.39173
4.3274499
157.42132
-181.03211
-2.4866038
-73.259218
47.023748
-1.7371695
211.49138
-34.287736
-281.89311
-74.780461
253.07408
79.430568
58.456646
-129.42899
-159.97176
-15.969108
130.48376
17.987395
156.89877
-151.58758
12.102721
-60.641086
37.629416
-12.003434
174.49998
169.65892
-502.32936
-214.91359
394.74867
-135.15577
287.99084
21.847092
-264.33498
-207.49479
161.78804
309.21934
-21.024845
-233.51771
-17.592055
-67.75531
40.180891
15.062317
263.62215
134.52471
-52.027642
1280.3224
-36.020267
-16.357336
-1310.4425
-662.34293
35.499109
-212.37072
3.1457957
308.78383
527.28455
34.888376
-312.36668
-282.04283
216.07449
341.91309
1.5334438
-310.9524
-1.6602791
-93.127105
63.685193
-2.6361935
344.69077
-186.5263
-484.79497
-119.9817
408.18551
133.11058
250.00676
-259.39372
-211.34571
-27.089122
167.76976
30.921841
299.13703
-245.94361
10.40351
-75.804653
51.392294
-16.101974
276.05454
-41.606987
1.856666
-37.574168
61.6477
15.677145
109.07001
-516.28609
-570.08478
369.2324
-55.636802
663.70542
8.1629982
-443.16415
-159.43034
118.92963
480.42186
-4.9201484
-344.99024
-12.362945
-46.926446
27.81232
10.165031
366.30224
-903.11005
-384.87367
1091.5993
-392.07289
1516.9247
-928.46479
-500.82783
-2.86253
-702.23286
-33.161127
850.68502
388.39929
14.561026
-521.62659
-195.35158
142.56735
560.39062
-0.54089815
-408.65206
3.9763912
-62.963292
45.222546
-4.304292
426.7209
-488.88513
-499.49184
-41.839693
385.04095
76.559236
568.61601
-427.02787
-165.29821
-1.6012236
127.88952
2.9641297
463.07373
-365.93811
11.126087
-56.519266
37.402598
-15.972591
389.90131
-109.88401
33.394869
-54.71311
118.94225
12.260073
-150.00712
-54.012783
-771.32518
28.350292
228.66578
718.32933
-24.687645
-528.33018
4.3474069
-3.7322944
520.83968
31.563191
-399.03161
-3.1609743
1.3829151
-1.0328927
3.2669274
398.57564
-2493.4318
-1695.385
-5846.9418
-2098.7196
1275.3331
10859.146
901.51268
-110.39916
-990.53395
-159.81687
879.07552
-519.8378
-10.416689
-612.6617
107.58397
-57.698464
599.15115
-25.95827
-459.74362
3.8184793
9.7929861
-5.2462723
-7.9286928
459.30714
-655.99482
-89.3636
231.02689
43.301121
-144.36019
615.39039
-511.79534
-6.266939
51.558849
5.7503796
-44.216955
504.97001
-426.6172
14.179455
-5.6863065
5.1369195
-13.589216
426.57618
-131.48328
19.306685
-14.823163
130.24872
-3.2493823
-265.2726
84.895162
-526.04511
-119.03151
357.35168
468.10246
-45.421535
-455.07415
107.58304
-86.864354
426.58694
53.190134
-370.01156
5.3112225
38.183402
-23.565988
-4.0205752
354.10351
-337.81117
-1920.749
-5863.2789
-2320.9419
259.56139
10183.22
1240.794
-145.26404
-564.65827
-202.13981
487.8009
-816.53265
-23.954071
-512.08772
277.45429
-179.88868
476.83486
-38.35869
-427.37474
6.2999725
61.073999
-39.49108
-9.9703543
409.46222
-450.75558
50.269342
357.69766
-106.03371
-253.46349
402.28545
-441.39501
95.861637
82.030257
-79.112554
-71.776618
414.39219
-397.61831
11.271448
35.264329
-20.524785
-8.9539417
380.56117
-116.36935
10.067995
11.935488
109.81489
-15.449603
-261.80892
40.358169
-338.63686
-102.00335
357.43324
304.65767
-47.302643
-340.64583
120.73913
-101.91803
313.99957
55.127727
-297.92785
8.8508539
48.864456
-30.614952
-7.4410628
278.26839
-148.83541
-1928.6781
-5566.6493
-2321.8014
129.29912
9836.6655
1175.2824
-146.61127
-334.82545
-205.83222
299.45937
-787.47291
-24.396648
-377.30077
297.09199
-200.50486
346.56914
-41.458978
-345.64926
7.8494418
75.243818
-49.722402
-11.02639
323.3046
-289.57531
9.4572351
360.00728
-86.624483
-254.17651
260.9115
-331.61416
108.54085
87.183968
-93.525425
-76.232279
305.64677
-320.96199
10.043517
46.062906
-27.888263
-7.1330511
299.87662
-88.964938
7.8957623
15.531872
82.230665
-16.69392
-245.56138
-4.9787452
-224.39341
-60.945324
333.29637
202.58236
-44.013277
-242.61497
101.79175
-88.907728
221.72104
52.022899
-221.32583
8.5945652
45.301877
-28.732037
-7.4481242
203.60924
-89.316567
-1928.2186
-5379.3055
-2319.0118
79.671724
9636.1807
1098.4296
-149.65407
-219.61883
-204.06032
197.27839
-722.37496
-21.576581
-267.54111
269.43314
-182.97988
244.13017
-41.466063
-257.90908
8.2967809
70.48486
-46.92686
-11.428854
237.48282
-192.83809
-50.20726
343.22537
-38.40762
-236.3655
174.59275
-236.87494
89.284028
84.93212
-80.205854
-73.839611
216.70388
-238.9444
11.936718
41.048151
-25.472412
-8.3110067
219.74257
-63.839802
10.174672
9.8122098
58.378924
-14.526532
-221.09211
-68.229778
-150.06733
-20.81451
324.70967
135.4936
-41.068104
-166.75227
79.609098
-71.555545
150.52049
49.245884
-155.20146
6.8720776
38.133612
-24.408875
-6.0318649
140.63605
-57.732643
-1927.9661
-5256.8673
-2315.9997
51.676529
9506.8893
1018.0512
-136.26077
-144.59936
-202.74519
129.69714
-664.14334
-18.608087
-183.84543
237.54665
-160.09172
165.82945
-40.831325
-181.37553
8.3312546
60.956807
-40.600119
-11.778257
164.46538
-128.88315
-98.258132
328.58112
3.3423573
-220.75828
115.97567
-163.01358
66.543147
81.935562
-61.861512
-70.973525
147.36948
-167.76593
13.436028
32.398623
-19.929457
-10.122544
151.98286
-43.938139
13.827998
2.8744632
39.687627
-12.452504
-205.2289
-103.35362
-95.691943
9.9202945
310.55001
83.803621
-39.160931
-107.61988
61.913325
-57.371261
94.843245
47.394897
-101.20736
5.1091612
31.696996
-20.428124
-4.4837326
89.312527
-36.374923
-1927.7326
-5176.7812
-2314.2241
31.932083
9423.1806
970.27175
-134.62003
-92.096121
-201.41436
80.683648
-622.82542
-16.581259
-118.88152
212.76836
-141.68481
104.56049
-40.181885
-118.49364
8.1815404
52.634108
-34.950341
-11.97734
104.60507
-82.312621
-131.77007
318.32316
33.162079
-209.80585
72.402764
-105.41704
48.793803
79.798042
-47.107678
-69.006425
92.938765
-109.48561
14.872466
24.964725
-15.066627
-11.860755
96.575299
-28.393008
17.0083
-2.5162028
25.008955
-11.10865
-201.35602
-122.24545
-52.895223
25.968388
307.02329
43.504362
-38.137213
-59.908215
50.700246
-48.202418
49.069499
46.477203
-56.565619
3.8307456
27.401986
-17.750574
-3.3429478
46.425862
-19.999742
-1927.3715
-5129.2233
-2313.2527
16.279244
9373.5677
943.00045
-132.93413
-50.966458
-200.75115
41.436942
-599.78645
-15.381446
-66.22333
197.10004
-129.79859
54.103702
-39.801275
-66.284331
8.0469106
47.068353
-31.139197
-12.11362
54.421166
-45.503992
-152.24846
312.10326
51.552098
-203.14569
37.242067
-58.619762
37.437023
78.452671
-37.408816
-67.85109
47.989401
-61.161586
15.708957
20.081383
-11.743589
-13.024842
50.139021
-15.784784
19.106574
-5.867231
12.938302
-10.393532
-192.5137
-128.04557
-16.081488
34.995579
294.55284
7.0917288
-37.682265
-18.357572
45.477049
-43.911247
8.445092
46.027763
-17.538989
3.2018803
25.341005
-16.458832
-2.7726948
8.227021
-6.0730959
-1927.2503
-5108.4135
-2312.9457
2.5237929
9352.1581
933.84055
-137.04982
-15.565739
-200.03784
6.7039234
-587.892
-14.876205
-20.262045
189.66541
-123.92795
9.1478475
-39.748083
-20.597284
7.9580087
44.423879
-29.314746
-12.149624
9.6789601
-13.719261
-161.3684
309.32135
59.845061
-200.18373
6.1041256
-17.966994
32.109538
77.82042
-32.980457
-67.269332
8.2862051
-18.970381
16.333192
17.593108
-10.173038
-13.708499
8.9248753
-4.8353451
20.185183
-7.4918504
2.2149869
-10.073841
-192.80244
-132.41413
19.524736
33.285826
300.92355
-28.51882
-37.694848
21.142471
45.780298
-44.105464
-31.144011
46.020075
19.461995
3.1974859
25.392256
-16.490068
-2.7748778
-28.787515
7.9250008
-1927.3372
-5113.1454
-2312.8296
-11.685845
9357.0721
931.22482
-133.08082
19.00307
-200.36079
-27.984602
-588.80317
-14.793283
23.370488
190.18812
-124.51172
-34.577802
-39.677232
22.769683
7.9672764
44.430226
-29.310499
-12.158553
-33.699367
16.822291
-160.12044
309.67728
58.869709
-200.54842
-24.701438
20.754268
32.530198
78.061693
-33.259035
-67.480424
-30.606879
21.117365
16.792275
17.267838
-10.127957
-13.845876
-31.204748
5.5900287
20.171042
-7.3969265
-8.2359678
-10.129085
-195.5511
-121.97442
57.623367
24.248965
303.47995
-67.828776
-38.110881
62.340374
50.80777
-48.111459
-73.300802
46.372352
57.65849
3.7655554
27.184339
-17.594152
-3.2899402
-67.725537
26.20061
-1926.7187
-5142.9738
-2312.9207
-34.474303
9390.8853
945.30731
-133.68028
56.902561
-200.63512
-67.49702
-600.40002
-15.239645
69.021
197.12989
-129.67544
-81.265679
-39.972489
67.476333
8.0981179
46.77491
-30.905062
-12.177645
-79.268098
49.833113
-149.73354
312.42149
49.916347
-203.59455
-58.84415
61.234413
37.644375
78.674812
-37.473859
-68.017185
-72.062949
62.536767
16.743372
19.088436
-11.433461
-13.51965
-73.417033
16.48348
19.274247
-5.821223
-19.394795
-10.543714
-204.12352
-102.24121
100.62058
8.3565143
308.8591
-111.47309
-39.044943
108.36828
60.153994
-55.601711
-121.04901
47.169099
99.787411
4.7045393
30.488582
-19.622338
-4.155361
-111.20412
73.144942
-1912.1017
-5110.5817
-2294.7169
-56.680871
9300.9343
961.14386
-134.62182
99.701276
-200.59346
-108.93202
-616.70073
-16.049847
119.86301
209.64236
-138.99301
-133.80851
-40.657597
116.7009
8.3735916
51.01065
-33.749867
-12.281933
-130.05506
87.065323
-132.53126
316.81858
34.257845
-208.91403
-96.698724
106.61292
47.24334
79.964503
-45.417245
-69.300601
-119.10407
108.33723
16.856936
22.524882
-13.836876
-13.066211
-120.81836
28.779653
17.796817
-2.8651333
-32.194607
-11.519186
-223.03667
-56.265641
151.31972
-18.321516
314.89793
-168.59296
-40.752836
163.56204
73.541541
-65.410795
-179.6416
48.697457
147.85173
5.5350063
33.881128
-21.582591
-4.9271156
-160.76098
29.722643
-1919.7732
-5263.2179
-2309.138
-49.446892
9511.849
1029.5251
-145.24787
147.20924
-202.90963
-165.55477
-663.02549
-17.025271
181.04471
229.629
-152.43751
-199.22218
-41.99185
172.56006
8.8900449
55.319383
-36.445476
-12.792982
-187.5334
131.7519
-96.691975
328.63847
4.5248648
-221.01678
-147.21025
161.36795
60.778135
82.855464
-55.372601
-72.035557
-177.5937
160.84785
17.124555
25.692906
-15.715999
-13.01553
-174.93756
43.696052
16.523974
1.1282395
-48.041114
-13.310895
-230.26773
-25.848735
238.52227
-46.925169
332.94186
-268.4251
-40.926169
233.91654
78.638852
-66.816652
-253.34217
48.525181
199.78856
4.9202454
31.680819
-19.841691
-4.5122012
-212.03659
106.19479
-1924.6821
-5441.9588
-2320.4474
-129.69813
9710.5854
1086.6424
-136.09198
240.16548
-206.88076
-275.69197
-708.14829
-15.964415
261.76638
237.5937
-154.13939
-285.3493
-43.911766
232.50098
9.7116757
51.694657
-33.318993
-14.013823
-246.57866
208.98367
-55.188507
341.37333
-25.430788
-233.67076
-236.07007
232.14361
65.378757
85.459401
-56.031566
-74.58924
-252.35913
218.2606
19.559776
21.925699
-12.611899
-15.378539
-231.75975
62.543772
18.156165
2.1815005
-67.738799
-15.148271
-178.13129
-18.857778
388.88727
-39.899096
287.21259
-439.22587
-27.321618
310.86188
41.684393
-31.081362
-330.27269
36.121388
242.85622
6.3761428
5.1873371
-0.78989833
-7.8627405
-245.77326
253.77846
-1859.253
-5742.4099
-2294.6334
-364.30862
10006.782
1090.0535
-127.60865
439.71852
-207.38851
-528.25704
-666.55047
-4.475613
360.737
175.85395
-100.7301
-387.215
-44.187089
281.03667
12.517938
7.8766176
0.19922182
-16.282629
-285.35187
347.16716
-45.576459
320.5769
-3.9362072
-204.84433
-413.39432
312.18715
22.572893
78.446849
-14.273687
-65.420596
-333.51897
264.16959
18.510049
-16.692835
13.056142
-16.782438
-262.26316
81.148109
23.053426
-10.736742
-82.818913
-10.654494
13.477522
-268.72246
551.35311
172.07165
60.879668
-529.04482
31.612085
-88.384947
386.87464
83.277254
-328.43416
-84.966371
235.38162
12.485974
-50.782628
45.566165
-21.531878
-221.13456
-1167.5079
2237.7831
-4551.4836
-1655.838
-4011.9836
9149.424
851.85755
-22.584056
917.90745
-187.50342
-1218.5629
-340.99693
22.454064
-66.059426
528.60862
61.381888
-60.21151
-486.22347
21.4744
271.74578
-65.933798
71.763834
-18.080217
-280.98038
584.88836
-368.2711
119.92899
266.25723
25.192382
-627.99568
-134.25822
388.55776
-9.7292264
123.03271
-17.041597
-350.58009
15.180401
-71.440888
234.20265
58.21832
-19.837596
-216.33068
-3.4648331
80.056879
-56.255226
-77.76661
57.418759
73.117947
-558.22068
397.67659
469.12293
-81.731614
-299.99581
-0.38433647
-29.463568
55.123153
24.671442
-50.059803
0.11028711
125.71267
-94.832666
-30.415541
67.474509
17.233147
-85.202808
-109.17278
-75.126753
-202.43032
209.82341
137.31167
39.21332
-128.83341
25.255067
92.379202
-24.177585
-62.090943
97.490917
43.199527
-295.36499
301.39972
233.46876
-57.600629
-225.1467
5.7516569
44.542172
-12.019617
8.8140529
-3.2875785
-43.810779
436.85512
21.641058
-863.07162
671.38292
64.106386
-330.87256
-41.395554
56.888436
9.409961
36.708588
-12.087823
-49.525892
48.922772
-92.780609
131.48278
80.456732
-66.968542
-101.1337
-6.2100183
-26.191243
51.129142
8.061216
1.9670893
9.8261137
-41.928765
-20.71292
-33.676271
57.729437
-29.867204
89.859885
-421.46617
2.0959801
125.83045
59.621342
59.039151
57.359668
57.538746
59.352733
38.328386
-116.96231
89.256011
-69.976144
-196.39907
47.011875
-195.30933
89.032344
-49.717878
305.37355
398.71109
-16.412278
-63.564058
-318.75943
-92.367524
-116.95269
101.94283
511.40017
-130.20785
-122.35249
-129.43845
-35.079632
-26.969652
-34.153686
-24.907355
20.590541
24.702346
24.866051
28.935774
-33.379149
19.824853
-348.65642
310.43534
-64.811557
116.58399
-24.557779
27.200776
-23.539425
-9.2757387
30.174419
-138.89
95.529752
-673.54655
33.87441
286.77371
100.13855
100.00206
96.253508
99.872032
13.348168
-32.480262
85.686306
43.774835
-100.02684
-10.303406
-11.107487
-267.91099
-235.0239
147.93394
15.49452
350.61658
-347.18287
6.6776193
-323.51019
85.508543
416.80167
38.434391
41.122513
43.774462
38.373241
-21.155048
185.69588
-449.0335
261.39655
23.092091
-389.59902
462.06716
-13.806893
26.60817
-424.83604
339.56462
-418.12699
-50.571139
-94.987251
266.77736
-36.892552
-44.592571
-33.60117
21.059023
12.856909
23.722923
23.303993
80.320536
89.431342
84.69219
76.615161
-287.62827
-7.8801308
-345.10646
362.71445
-30.502788
308.40731
-53.772259
44.814835
-35.074203
-10.182602
54.214201
-566.60286
-347.90051
204.85168
-97.668191
596.98915
49.976714
49.988916
51.614222
58.756873
-39.492502
-28.542136
131.29219
-193.43033
89.876067
40.295631
-497.03106
-412.5139
-66.746501
-0.31293272
522.71399
453.88798
-93.320901
-122.33101
-571.99133
202.10793
537.35199
9.1256647
11.719983
16.862128
10.477029
-23.935893
238.35811
-546.27563
23.330134
308.51876
-211.48393
512.26641
-25.053954
26.952301
-481.88897
179.20533
61.363977
-458.15348
-159.80119
-88.196607
68.110924
67.035083
74.678035
34.830283
33.354671
27.527918
22.749153
82.307368
84.308723
77.374332
72.513089
-290.72981
-31.452461
-268.64174
332.94974
-9.8164404
267.69038
-44.436658
43.59284
-36.567855
-4.8029958
42.213704
-430.9317
-120.16637
283.14617
73.765623
-180.98968
375.17315
-33.108102
-18.788146
151.53154
-226.04978
30.739067
95.673544
-269.84051
-545.51311
-81.32543
653.07603
225.09463
4.8098445
5.1530911
2.6643969
5.8768478
-139.33938
18.955515
-346.09814
229.38228
281.39936
-14.230304
-12.207538
-6.797871
-11.067186
-16.669062
287.07951
-625.58279
15.516879
339.65193
-115.36735
487.80423
-49.563199
37.010411
-455.20663
95.319555
93.155941
-217.66542
-82.881338
-224.98612
91.260555
93.456826
91.910563
3.7043912
3.055127
0.64592326
-1.5033718
40.314463
39.771036
36.136594
33.62434
-184.48113
-37.05283
-202.52126
286.61039
-19.172116
156.61421
-26.795017
38.893532
-34.887008
-1.9685682
24.756115
-229.33076
-103.07954
281.4002
32.979932
-172.53417
190.56363
-19.888139
-5.101507
171.67662
-250.71811
17.964873
86.064241
-133.74966
-523.32569
-108.37019
624.77026
110.78613
7.1950433
8.1327236
5.9752774
8.5822019
-121.99202
24.668438
-136.14525
202.34066
94.805617
-18.605154
-17.521051
-12.83842
-14.716641
-8.1856731
310.20976
-662.9081
7.1758277
353.70542
-50.629958
474.29329
-57.796938
40.391047
-439.34519
33.085916
89.798206
-87.664724
-64.794347
-244.34039
87.97811
89.86012
88.128035
-2.9765304
-3.2939581
-6.0119174
-7.0632412
18.015104
16.490039
13.856544
12.018314
-80.748282
-38.218638
-175.61672
263.70333
-26.028124
56.904412
-11.600556
36.359936
-33.494184
-1.1018592
9.8359399
-95.541301
-115.35821
275.67336
29.72795
-162.0557
67.553361
-9.0344091
1.4889125
181.3195
-262.12853
7.6376017
80.714737
-55.17492
-505.67815
-117.1612
606.11767
37.426502
8.0259471
9.3468968
7.4592377
9.6347913
-118.28603
22.162383
11.4168
196.38705
-46.749165
-18.420491
-18.204591
-14.223538
-14.086553
-0.59805406
312.52837
-665.45652
-0.38555339
353.90957
12.01821
475.66877
-52.320941
37.370152
-440.22551
-32.511402
88.334213
5.0676847
-68.734403
-254.68145
86.621137
88.554227
86.804277
-4.8306787
-5.0913555
-8.2296084
-8.3020386
1.7240781
-0.50750287
-2.5819499
-4.1477332
11.75891
-37.309321
-166.31654
254.75303
-27.003437
-35.888541
2.8498187
35.628667
-32.687413
-1.0000554
-4.7916964
7.3718182
-120.81788
275.30442
30.920047
-159.55947
-33.229166
0.48414714
2.6603751
181.26421
-262.15204
-1.6750098
79.415843
15.518322
-506.34107
-112.25734
607.7398
-36.836455
7.1628486
8.8232928
7.2113903
8.976719
-132.87111
24.655063
163.80091
213.1624
-210.52836
-16.270916
-16.90191
-13.640385
-11.410856
7.7465691
296.39937
-635.26099
-8.9740968
340.08914
98.929149
490.31998
-27.986515
25.853719
-454.50976
-132.60601
95.09136
91.149868
-112.5971
-296.93994
98.505935
95.589931
98.476159
5.9689692
6.0315915
-0.92641861
-0.54368565
-16.66107
-19.425054
-20.549585
-23.172905
114.9458
-35.099887
-157.60789
245.4805
-22.388792
-145.33648
20.843614
35.705747
-31.498184
-1.5158782
-23.535922
113.4706
-119.69267
288.31277
30.299702
-165.47516
-146.93611
11.437878
0.46248091
171.56429
-250.67933
-12.852517
80.06469
117.73401
-520.64098
-87.923198
626.79479
-157.22462
4.0419721
6.1496366
4.9616953
6.1047309
-136.05942
-15.008
382.22668
228.70383
-441.79627
-5.7229221
-6.8402683
-4.9120145
-0.59813653
18.67694
259.81863
-565.64067
-20.222938
307.37194
269.87851
472.71636
2.0354302
17.760072
-426.36792
-336.01964
86.000377
266.29238
-160.06016
-267.68702
89.338599
84.196225
86.942134
11.901797
12.743747
3.605424
6.3774621
-53.554716
-57.537405
-53.345691
-55.221427
229.093
-35.170013
-151.65087
223.2517
-19.869735
-245.67171
43.698753
33.987341
-28.114459
-3.5589386
-46.014209
250.12129
-121.80677
276.5141
40.519673
-157.45809
-287.92883
26.59145
-1.0352158
153.44071
-226.44005
-28.430305
75.873354
335.17866
-474.8926
-44.633373
594.68808
-421.32704
1.02116
3.6190235
2.9923126
3.3565859
-36.891568
-329.94657
508.8385
139.32902
-438.07399
37.871589
38.324678
38.844003
41.699862
163.64896
-13.934498
-365.02403
198.61274
16.7017
334.14448
92.184459
-180.80783
68.084043
-105.40263
-208.20033
-192.95011
-71.735444
410.76601
216.65963
-62.66985
-91.250493
-81.500843
19.72543
23.797437
11.963078
18.50829
-61.951212
-57.776453
-39.901592
-41.70524
184.66311
-52.460997
-138.89768
-118.67435
160.38843
-35.030207
42.667213
25.885931
-21.354084
-8.4516625
-38.748104
360.64772
-281.15663
187.68344
191.06494
-101.51526
-356.76062
19.748986
13.058076
135.43279
-176.58011
-13.302039
21.644706
480.12578
-50.432889
-181.52809
41.056289
-352.78541
15.07209
16.115019
15.984857
16.387371
-544.27061
106.67266
-59.416242
430.27575
130.90512
-18.728191
-17.237109
-11.799919
-16.403532
-0.52402076
-135.52063
-29.207587
103.78199
24.544666
36.924072
94.732585
34.339885
-89.61732
-116.79308
31.919404
29.223005
32.2036
7.5591637
8.5789232
7.8755791
7.384553
-11.625744
-14.408418
-11.663827
-9.7154522
-541.06048
-392.54617
2554.2158
313.8595
-397.32147
-509.90703
-269.97187
-431.61911
-325.71975
2.2525488
-88.110806
107.45798
34.606539
-42.289138
-13.899529
-9.8661786
13.027359
8.1634148
-9.2685763
-9.5880952
7.5308615
-680.17087
56.310521
172.49478
-36.904764
611.37908
-38.002999
-43.088013
-20.278017
-21.863325
60.376097
-17.803513
-10.961723
19.472341
20.365872
-71.457335
-116.45457
108.8643
46.782689
-14.38806
-15.42096
-14.145973
-11.51817
-8.4959835
-11.260745
-7.8699744
-6.6197549
14.149408
11.80516
12.864916
11.711932
-12.810172
-6.7266082
9.0782967
2.1615575
10.434086
-2.137942
-7.3589141
20.265014
-34.959484
4.2720107
-5.3209572
23.098563
358.0491
-422.82584
179.33114
-302.25344
68.000877
67.72017
66.407203
58.658421
24.860533
60.772202
-2.1067092
-3.6523272
-31.817687
-48.05984
-118.91386
3.928453
-368.10954
104.77567
169.77306
54.090756
50.463774
50.985511
53.017804
53.595056
-4.8058937
20.303654
-44.618583
130.70145
26.901878
81.050534
-30.979395
-107.4772
-100.21368
43.092803
259.46183
163.96719
-64.591332
-57.661596
-344.27093
280.1851
178.76297
-696.54708
-127.68132
-192.9825
-40.15473
-483.13615
-14.821705
369.60165
59.435557
-28.47851
91.804903
141.76457
11.630438
-158.32558
-58.359231
458.42725
57.558023
213.77285
23.51405
-556.51312
-196.74065
-296.23983
-1914.8614
-186.63454
1081.7911
438.74522
877.21652
-29.229354
121.61054
22.089098
-12.0364
1.54517
-103.97913
39.943155
-11.102992
5.032409
7.6451438
-35.756146
-190.0538
-16.467187
-82.840394
102.12268
-9.1660428
-19.188808
-17.783895
31.849859
-25.837625
14.900556
16.062706
83.584441
-153.28734
-28.649275
-58.898862
-56.627895
-1548.8049
1388.0349
6125.7273
-5904.1223
537.87506
1141.0266
76.343192
-1545.5729
-348.99973
31.1494
49.645112
21.969069
36.755388
-549.49683
860.36574
-208.42138
149.39813
22.683924
-18.151383
-155.94739
-27.222968
1082.7567
170.34987
89.692946
-74.824415
-1408.5562
29.603436
41.413239
40.465852
29.196763
171.10797
-111.5319
86.519302
-131.28919
8.1017414
8.984537
11.219308
5.7850934
-19.536695
-17.016847
-7.1934058
-225.08277
203.57543
-35.374788
-74.451341
148.7686
-5.9188198
-2.9819797
-4.9714905
-3.5968713
59.03419
5.4371576
-46.31741
-9.3828472
-50.168144
112.75499
-291.78548
219.90195
-224.99045
184.10321
26.233375
59.529322
2.9616762
-1.3216808
-32.843435
-54.560268
99.381298
-734.20285
1.3603864
59.083724
109.64754
108.26299
108.71895
108.87128
35.907393
47.676482
-10.407528
18.163855
-38.294661
-53.045367
0.90865746
0.26644725
-13.581925
11.743932
0.66138226
-61.150671
-10.082903
48.480408
22.749024
176.50509
59.583199
-136.82942
-68.742039
-123.30573
50.073409
0.088225347
-59.223876
29.085179
29.437665
46.768611
-64.168076
-27.424906
15.384866
65.148174
21.402793
43.191473
-80.487562
54.493082
201.84199
210.73844
-40.950083
-294.94934
-131.17176
-10.725321
82.385763
-132.81264
55.099379
-0.49214226
106.29233
-211.54849
50.648051
-4.9960018
-88.333912
-0.34961085
84.021217
9.1344601
-297.77538
612.85134
-544.65487
524.26682
-112.75843
-236.72676
-264.3485
-221.95958
156.74947
74.953794
77.053724
-234.51696
-111.22844
37.011743
9.1950784
14.519509
-12.885047
16.050972
-26.391329
-0.48874307
-374.88285
68.712056
-21.604736
99.847496
160.31416
67.583436
14.90389
-12.131871
-15.434733
-14.681574
18.149307
9.1968184
7.151064
12.472947
-11.95043
-7.7402894
-9.796982
-113.40871
-46.995366
-58.43936
-55.117265
-52.06349
189.04213
100.9056
96.429876
-85.657517
92.322373
80.291303
66.755564
-120.55201
-8.8223748
-8.503209
-7.3911767
-8.4350623
115.0901
-9.1881352
-89.465519
-14.045842
-10.402264
-14.092541
-10.86259
-7.6719079
-10.035949
-7.707399
3.2098656
10.228669
4.0825082
6.8940009
33.978943
-2.1022507
-1.2985009
5.2803143
-2.1214492
0.22385724
0.018289921
31.832986
-5.5417197
-15.768287
6.3422466
-20.148579
3.2777483
-156.57523
222.05013
-649.79635
122.96993
-39.546746
-69.801552
-53.511504
-56.002896
-428.46482
-419.38525
281.08823
326.65667
240.07487
-134.09071
-54.409713
282.64932
9.6314001
-103.74925
504.74644
-257.96229
117.7809
172.2028
-523.29257
89.855997
379.83508
-36.389505
69.750699
-99.550103
-403.51143
-393.20489
-76.796625
131.84382
349.75575
346.42376
181.81372
1.5342023
-65.506234
-61.587278
-65.526926
-30.430089
-243.70909
344.15963
332.74243
44.092987
69.077575
-324.45173
218.07245
40.990489
-18.605132
12.563912
-56.81631
-196.2144
21.883844
-58.517748
-55.626332
-58.26239
-20.969018
130.28808
276.59663
62.019377
15.796489
-19.9744
-82.885778
155.73419
636.97646
48.171309
-428.44735
129.50848
-654.97954
1566.2811
-1058.4673
-1546.3057
-2593.5085
2464.5606
64.741387
943.64335
-340.46295
-202.46445
372.6679
-838.00745
161.42026
526.61676
-681.79265
-93.007043
366.89901
204.99195
97.80758
1831.64
-508.60882
126.04452
3.0113652
-0.32817552
-1793.7582
-17.062227
775.22274
-77.709311
-103.15306
-104.99867
-71.572382
609.54835
-17.504402
4.556641
-17.038739
-228.61257
-226.81652
-223.43724
-209.36258
275.46498
-65.99732
21.894396
77.865212
-287.76795
-25.648036
-69.28138
47.129865
18.207635
155.29018
-27.232618
-86.669105
-38.186135
-44.373304
-43.617196
-0.830666
74.490291
206.37241
1041.0847
928.60106
-230.98045
-821.94741
136.12179
693.39128
783.32308
-237.89359
-1374.9936
735.04592
-162.54571
325.47256
315.22077
-397.60488
-815.57684
-299.55151
-2962.9721
-631.94243
2.1428242
392.58667
98.959257
3530.3666
117.16952
-110.63986
-25.200433
85.233645
42.073331
1744.3922
-29.478132
-1813.3021
45.844934
1018.956
177.98445
-1346.078
641.29665
12.32237
-23.635546
-1.5629948
-10.460394
23.331578
248.01114
-80.49991
14.17387
64.864963
-231.38149
-90.896502
-47.526416
-45.320808
-46.739414
64.119491
-31.965735
215.63474
-24.898351
-10.205837
1.3483876
6.3065546
17.630779
9.8143183
-111.9437
-42.864668
78.506398
56.93002
190.45932
448.32266
-26.516483
-154.96456
-0.27404505
-400.84879
136.34436
-205.13995
84.906698
-141.5104
125.39701
98.594024
304.18553
58.610149
-51.871924
-113.99642
-295.52588
-780.38771
26.236947
676.86344
16.46559
497.71758
286.50488
27.050025