/*--------------------------------*- C++ -*----------------------------------*\
  =========                 |
  \\      /  F ield         | OpenFOAM: The Open Source CFD Toolbox
   \\    /   O peration     | Website:  https://openfoam.org
    \\  /    A nd           | Version:  12
     \\/     M anipulation  |
\*---------------------------------------------------------------------------*/
FoamFile
{
    format      ascii;
    class       volVectorField;
    location    "1";
    object      U;
}
// * * * * * * * * * * * * * * * * * * * * * * * * * * * * * * * * * * * * * //

dimensions      [0 1 -1 0 0 0 0];

internalField   nonuniform List<vector> 
94133
(
(86.129742 -4.5241237 -0.39054851)
(89.028412 -1.2390077 -0.28274367)
(79.720714 -0.18148851 -0.36178577)
(89.400463 -0.58849714 0.006667799)
(87.368913 0.13628852 1.1891321)
(83.095381 4.017349 -0.72598645)
(89.584466 2.7077546 -0.37300209)
(87.436949 -2.7311953 -1.2024684)
(90.73942 -1.7040071 0.097158653)
(76.631538 -0.027030874 -1.7674408)
(90.222521 0.030142993 0.21906094)
(82.011034 0.28284432 3.7436365)
(87.559977 0.93998921 -0.98956001)
(90.791299 1.4494143 0.012424754)
(89.091736 -2.5357818 -3.1485013)
(93.097403 -0.96454157 1.5540928)
(87.753244 -0.11773489 -3.9224549)
(93.86122 -0.14462546 1.4559524)
(89.793955 0.29534408 4.8595922)
(92.8653 2.0703656 -2.818131)
(93.450421 1.0858457 1.5940645)
(92.940201 -3.047795 2.6399469)
(100.9443 -5.3549168 -6.3483839)
(100.80205 -1.0443812 5.9028804)
(93.28277 4.2858214 7.3745051)
(94.696264 -0.18074175 -8.6237805)
(102.22702 -0.076334231 5.5072856)
(93.7982 0.019386439 14.271841)
(100.28343 5.1874665 -6.5443872)
(100.94015 0.98365727 5.8523242)
(91.893352 -4.1343734 8.0713404)
(125.29444 -13.229504 -13.662985)
(119.15868 -1.7321407 17.561804)
(105.08531 6.152506 31.169066)
(21.349099 1.9595439 -21.953021)
(128.92159 -0.32754683 -19.631169)
(123.78929 0.074391382 16.134422)
(104.41899 0.27903441 34.538075)
(127.39701 11.229422 -13.537152)
(120.05409 2.0010949 16.889424)
(102.34922 -5.4929586 34.312296)
(187.4052 -31.359533 -20.747101)
(159.68146 -4.8900544 47.064544)
(119.34306 13.487189 77.60062)
(64.794524 -0.44823935 -117.61576)
(197.90184 -0.51555905 -37.75021)
(171.1534 0.53531226 44.434201)
(124.90056 0.28911408 82.625336)
(191.64856 33.136283 -23.445231)
(161.238 3.6106543 45.73839)
(121.18616 -13.782158 81.48077)
(324.39064 -77.679755 -5.1499124)
(236.05826 -11.439287 121.42008)
(146.30204 28.549787 168.43617)
(327.1613 -3.9884153 -292.04197)
(369.94261 -2.2871731 -45.518752)
(263.61194 -0.9370001 118.81725)
(158.48927 1.1383741 183.42102)
(335.74635 86.745784 -12.570795)
(235.50702 9.4033279 117.99802)
(148.9976 -15.948514 162.2228)
(571.37631 -164.10169 109.66401)
(342.78585 -17.756836 283.1203)
(184.8937 33.170549 313.41109)
(1053.2523 -9.3408295 -507.17462)
(692.95771 -9.7402436 53.844818)
(391.1783 -4.1886484 275.73363)
(199.16841 0.39172055 361.70025)
(573.41274 154.25067 97.47823)
(340.09022 20.057452 276.5118)
(180.08426 -25.983184 325.29344)
(873.7059 -249.98068 492.89644)
(420.37288 -26.197493 574.20121)
(195.29567 30.716634 545.80597)
(1622.6252 -5.6589301 -175.67544)
(1015.3578 -20.211082 487.17828)
(489.87196 -0.1911992 594.50315)
(218.32332 -2.722044 602.66198)
(883.9728 227.38013 455.26878)
(426.35513 33.674638 556.60458)
(199.62729 -26.549096 533.84058)
(230.70691 7.4036881 360.00157)
(798.09194 -130.72921 1197.6116)
(338.14911 -6.4364925 922.55736)
(161.96818 20.618873 775.55431)
(-5967.9757 -38.986761 2688.7437)
(295.34179 -29.632328 1476.3219)
(323.31539 -0.92014148 947.93704)
(164.9208 -8.2984216 811.05754)
(815.54151 89.542829 1104.0778)
(351.9242 0.68452593 902.58434)
(169.04876 -24.714594 762.84996)
(198.76725 30.794921 583.28889)
(-307.72705 317.64778 1446.9723)
(53.281713 48.799759 1048.4765)
(86.45016 5.8800827 868.23486)
(-76908.863 -373.14098 4188.0406)
(-4717.2682 -38.280274 1782.5892)
(-250.09977 -21.530126 1073.3947)
(63.744314 -11.196264 897.82383)
(-166.66625 -349.98621 1326.2015)
(79.172507 -85.58908 1030.3182)
(98.776455 -25.695762 857.70453)
(116.29011 -4.423438 665.314)
(-564.34397 529.33641 966.67346)
(-114.6601 81.282087 881.3753)
(30.968514 -9.5944208 788.10075)
(-75848.699 -374.86372 664.14288)
(-5270.3564 -43.918477 1003.4679)
(-483.84427 -34.404673 877.42307)
(-9.3390752 -15.816739 816.44049)
(-427.30014 -561.20086 889.9296)
(-87.020021 -137.66813 868.68154)
(43.591351 -21.1965 781.89814)
(67.468246 -29.170161 574.97279)
(-507.87596 530.06816 625.86055)
(-140.1558 83.841749 654.46376)
(13.812317 -16.262903 627.09153)
(-75031.031 -372.98808 309.17603)
(-5190.6219 -48.865504 604.46487)
(-516.26711 -38.698869 642.50382)
(-30.373798 -18.398803 652.54865)
(-374.30083 -565.54817 574.31264)
(-112.49709 -146.22947 647.22759)
(28.294488 -18.863185 624.01144)
(59.824474 -31.781353 435.18452)
(-413.59715 493.29695 414.87465)
(-111.05468 79.095695 464.19049)
(18.979091 -15.902779 462.46749)
(-74543.964 -373.82121 187.84451)
(-5079.9318 -54.915687 395.16405)
(-480.49495 -38.714125 454.01105)
(-23.783633 -19.112814 483.24464)
(-278.3496 -536.12502 383.33605)
(-83.135072 -142.10356 460.42602)
(33.577538 -20.299992 460.871)
(70.891282 -27.095802 310.68349)
(-328.08216 473.29138 278.58852)
(-75.325082 75.125833 317.11617)
(28.610111 -12.798937 321.96716)
(-74227.911 -373.32665 121.61714)
(-4939.3524 -52.736816 261.10055)
(-435.67534 -38.025396 310.24494)
(-9.9167728 -19.315423 337.36065)
(-198.36284 -510.25749 255.45838)
(-45.084353 -136.76821 315.02842)
(45.46939 -22.941414 321.28437)
(89.611282 -22.327414 212.57906)
(-277.20807 446.42958 174.96666)
(-46.795064 72.801217 202.40715)
(40.084207 -9.5656257 207.34737)
(-74022.84 -373.17419 75.928955)
(-4867.0474 -54.781458 164.4031)
(-400.56781 -37.051908 198.24135)
(2.2744565 -19.232228 217.62869)
(-142.04507 -492.1234 161.41278)
(-15.83733 -133.05212 201.32113)
(55.759124 -25.510608 207.03952)
(99.942481 -18.964425 135.7493)
(-236.35651 441.64463 93.362358)
(-28.102222 71.623412 108.93272)
(46.816937 -7.2180181 112.08803)
(-73901.22 -373.39491 40.327419)
(-4818.6219 -54.471547 87.899979)
(-378.87197 -36.388251 106.79377)
(10.42337 -19.14686 117.74484)
(-107.60184 -481.1195 86.328003)
(2.0168433 -130.83418 108.26335)
(62.723871 -27.298742 111.86417)
(100.40156 -16.962983 73.014896)
(-228.39551 421.51728 21.433838)
(-19.687957 71.151342 26.795096)
(50.05427 -6.057458 28.041611)
(-73848.67 -373.50348 9.5567022)
(-4813.4221 -56.933689 22.050718)
(-368.37813 -35.983838 26.117787)
(14.337523 -19.057071 29.531687)
(-92.006563 -476.21306 20.68149)
(12.079292 -129.85691 26.690332)
(65.859445 -28.321133 28.030658)
(104.32172 -16.086641 17.922143)
(-229.42028 429.64194 -46.130774)
(-20.375103 71.146974 -52.274291)
(48.528461 -6.058666 -52.51135)
(-73860.562 -373.27832 -21.798299)
(-4803.5965 -55.657362 -45.250767)
(-368.58808 -36.122055 -51.428757)
(14.332889 -19.086914 -55.082599)
(-94.099808 -476.82624 -43.321277)
(10.152375 -130.08015 -52.157445)
(65.988038 -28.338219 -52.56479)
(103.82689 -16.191168 -35.146075)
(-246.72138 434.58119 -121.3487)
(-28.358172 71.560034 -135.60709)
(47.178281 -7.1066801 -136.45879)
(-73941.203 -373.45829 -67.443706)
(-4825.8666 -55.419496 -119.10525)
(-378.31301 -36.558806 -133.35767)
(10.914063 -19.266774 -143.1439)
(-111.16581 -481.72701 -113.38197)
(2.8655864 -131.11495 -135.33563)
(63.099937 -27.761808 -136.57063)
(101.14345 -17.212438 -91.203632)
(-270.15161 444.98453 -205.40361)
(-43.215059 72.596669 -229.35868)
(42.029043 -8.863052 -229.62752)
(-73223.604 -369.74745 -144.31781)
(-4820.9106 -55.620958 -198.69757)
(-394.15824 -37.427653 -225.16605)
(4.9060665 -19.686537 -240.69802)
(-136.84666 -489.95636 -191.71984)
(-13.685601 -133.54985 -229.30425)
(57.647719 -27.054496 -230.2469)
(94.897966 -19.384996 -154.99837)
(-329.69464 459.74105 -310.90886)
(-64.220297 74.782171 -343.09808)
(36.870556 -10.443135 -335.87098)
(-74101.334 -374.12754 -87.976958)
(-4959.8296 -57.84411 -297.40708)
(-423.16406 -39.399512 -337.44632)
(-1.2943459 -20.689286 -351.26442)
(-197.90799 -510.53845 -291.0344)
(-35.071049 -138.47558 -344.17436)
(53.267514 -27.143187 -337.26277)
(87.953949 -23.082611 -233.20062)
(-391.66571 488.28341 -496.66702)
(-70.554519 74.515734 -486.93751)
(39.254448 -9.4546123 -448.18656)
(-74718.413 -377.87751 -261.92573)
(-5036.9274 -56.459516 -491.18586)
(-430.58088 -42.411431 -485.56023)
(4.7136055 -22.47088 -467.331)
(-262.36734 -532.28302 -464.33491)
(-38.669811 -143.07082 -491.90017)
(58.836068 -31.181881 -452.0618)
(92.160781 -26.202803 -331.18552)
(-379.26834 426.68202 -789.98451)
(-5.4500206 56.362928 -636.64051)
(74.056957 -3.9932279 -529.99435)
(-75278.054 -398.05549 -677.42108)
(-5001.9668 -66.363103 -905.49203)
(-336.98561 -47.348132 -662.70692)
(52.327873 -25.578676 -546.86636)
(-232.04527 -494.55723 -774.97728)
(35.988199 -132.63662 -651.07896)
(99.176652 -41.913555 -527.60103)
(116.60109 -18.716742 -427.6243)
(137.52805 117.75149 -1061.0156)
(223.88181 12.358358 -663.35823)
(116.12012 28.283973 -468.04518)
(-66090.017 -497.86244 -7672.875)
(-3235.7165 -133.25657 -1753.2763)
(28.383817 -64.998916 -756.10654)
(145.78127 -29.674693 -457.90261)
(434.46232 -173.96434 -1094.2861)
(293.99234 -93.229913 -663.90746)
(151.21371 -73.817452 -444.33078)
(197.47008 31.500829 -441.41274)
(788.47741 -125.93483 -600.95324)
(271.63658 6.774231 -320.38942)
(243.5479 52.633803 -196.58182)
(-7167.0585 884.79135 -768.08394)
(722.81344 -163.04411 -480.79251)
(512.49844 -80.162455 -417.56952)
(157.46709 -26.18158 -232.58716)
(763.5175 2.6249572 -648.93587)
(343.54734 -44.688009 -323.76658)
(252.73562 -97.588016 -217.68257)
(254.6695 143.94 -483.41369)
(690.05889 -32.602171 102.70443)
(-269.79958 324.18313 -406.38459)
(331.31233 -53.002398 471.83394)
(-215799.21 85.202833 -1853.2208)
(741.45827 -214.36898 171.99429)
(584.84662 -68.097788 121.80788)
(162.35144 -95.975615 138.72702)
(1172.7323 -93.279308 317.34877)
(326.81911 -545.0809 -82.508106)
(373.64021 -28.108222 495.38429)
(550.14887 78.351905 554.9724)
(-1389.446 1040.5026 135.69727)
(-40.908206 -785.33365 695.53897)
(283.65379 184.04099 715.13665)
(638.85395 -18.097689 489.12215)
(201.76142 -150.62916 272.1992)
(609.33319 -247.94067 888.8431)
(472.65654 -1043.3842 257.55781)
(139.4157 747.38119 851.97737)
(132.79021 222.76859 805.75758)
(-1754.8829 1233.1813 145.25835)
(-47.431314 -871.36299 371.8817)
(-649.82001 275.84631 738.1959)
(546.03105 18.200232 458.16777)
(204.53395 -129.90987 218.40088)
(177.01478 -360.29976 621.59404)
(458.72472 -1187.4814 205.95036)
(168.21053 956.67374 443.04289)
(-112.94982 266.00047 455.86817)
(-2081.9135 1366.2028 98.912076)
(-13.573755 -824.25817 201.06471)
(-790.23219 74.686561 352.0198)
(461.79296 15.121396 279.85103)
(198.68779 -107.94229 129.93781)
(129.92485 -351.27479 323.85877)
(381.07733 -1291.2968 121.14437)
(209.54986 914.25938 218.63394)
(-142.20697 232.08577 167.82932)
(-2237.2562 1426.8925 47.198758)
(-2.014841 -797.82734 80.636289)
(-787.42218 28.743236 143.75859)
(422.25379 10.426188 112.93802)
(194.21911 -98.303551 54.038357)
(137.26427 -339.36015 125.86184)
(341.31328 -1334.1447 52.022633)
(224.29747 884.60127 82.473122)
(-141.54231 224.88402 -42.222172)
(-2251.1605 1428.6443 0.6354907)
(-11.267328 -799.75067 -40.922052)
(-788.6884 23.029459 -7.0713642)
(407.75104 8.8627518 -39.089359)
(191.8307 -96.092037 -19.248283)
(144.65016 -337.42381 -31.189797)
(333.25928 -1321.7841 -9.4193878)
(216.32446 886.71374 -47.431337)
(-135.92699 247.94264 -271.91402)
(-2136.8174 1371.7306 -51.411154)
(-48.230773 -826.179 -218.10919)
(-946.73203 100.62453 -161.19404)
(388.11067 10.799991 -213.54066)
(188.47717 -98.222374 -111.84111)
(142.04726 -351.84239 -200.66607)
(343.19355 -1248.6843 -81.583875)
(177.79568 914.99964 -246.90915)
(-50.315254 265.04438 -598.47117)
(-1878.2153 1237.6906 -119.58266)
(-83.514154 -789.86074 -573.15429)
(-875.26209 168.17205 -463.68745)
(365.49372 12.78344 -389.38215)
(179.11145 -100.50558 -226.11422)
(153.3934 -336.93136 -414.76102)
(335.42129 -1106.0081 -181.70682)
(123.05167 855.74877 -678.47698)
(534.06382 145.10236 -688.09843)
(-1155.7117 795.09557 92.701827)
(296.88991 -148.01277 -513.8973)
(406.52014 251.39737 -588.30136)
(313.6177 13.837334 -247.28697)
(159.19356 -94.485847 -205.87106)
(422.30992 -233.68762 -555.26598)
(110.46871 -882.2024 -109.58599)
(331.40682 52.593504 -746.36674)
(902.26665 133.24002 -137.74659)
(195.7537 771.73947 190.9863)
(195.24679 -283.63357 -141.28809)
(254.08634 29.990036 -2329.8129)
(-137.2766 33.765313 -101.07692)
(127.61154 -62.355085 -65.689349)
(1207.0458 -66.958708 -261.7359)
(188.70417 -411.0356 123.32844)
(238.78521 -107.61648 -168.51081)
(185.68486 33.796776 41.127977)
(-783.8159 -35.732377 54.076945)
(465.10077 -193.85708 -598.83325)
(301.37023 -9.0374291 -266.07609)
(454.90646 -153.66772 -87.360046)
(251.66909 5.7381802 -315.77385)
(249.02179 77.958779 -219.16928)
(448.61883 128.15218 285.98285)
(731.36833 -289.39727 -437.1506)
(353.51878 -271.28951 -1145.6797)
(830.44151 -118.64569 -251.52372)
(714.20061 -288.07894 11.14153)
(-25442.719 -3516.4232 -5062.0746)
(485.82503 -88.065043 108.39637)
(166.17449 -28.270407 -227.94466)
(335.80624 27.747015 258.34381)
(184.2304 -94.052331 154.17537)
(812.61583 -177.32426 -428.22897)
(-14537.793 1875.6376 388.11904)
(504.68501 -78.898509 -720.19569)
(-43409.619 -640.64589 -3000.4582)
(429.8322 -154.05207 120.64542)
(1784.7829 -80.691521 173.9566)
(268.48449 -90.062786 -248.21798)
(148.91266 -67.577606 105.43574)
(386.90332 -13.155239 215.62032)
(372.04815 58.712858 -246.45546)
(71.455705 154.5801 -381.00218)
(305.62142 -43.429483 -354.46991)
(1182.9899 -90.776763 89.820391)
(317.43092 -249.25506 -94.77159)
(157.67167 52.186984 7.2943782)
(-235.10975 -16.076443 -209.3595)
(313.96595 -105.17579 -269.35584)
(283.5348 -134.54394 -386.8688)
(215.51922 -27.356202 -160.04764)
(333.50471 -456.66768 -113.53935)
(529.37571 -115.84898 200.8811)
(-476.08625 -64.868491 -411.525)
(462.36251 -48.422732 142.27014)
(97.651618 550.20554 57.5404)
(1076.9372 889.25107 -593.18115)
(138.77909 336.08509 -54.017531)
(181.07133 82.686843 135.70275)
(-11510.032 -518.57511 -744.53482)
(-189.82047 117.42053 63.930742)
(138.5727 -24.413213 -68.482079)
(254.90439 -431.07947 115.36507)
(258.24119 -130.02557 -110.95532)
(-452.70281 116.67013 99.469742)
(78.079132 5.2932858 -27.127207)
(-227.30492 -55.916518 83.561359)
(1302.077 310.99404 -472.94153)
(-30895.401 2298.7232 1922.223)
(-864.91312 -338.55571 808.23742)
(145.50286 -13.9986 -1000.3577)
(228.31126 -13.150259 -697.66743)
(352.18961 -163.58266 -657.88416)
(445.42004 -22.477066 -534.2185)
(219.29463 -2.0675313 -627.49506)
(137.34961 30.961064 -439.22697)
(337.07729 23.62119 -475.12569)
(211.76531 61.04059 -276.63659)
(-51.415747 175.9698 -1277.9036)
(-28736.137 2819.4597 -5427.5893)
(-3037.7589 390.58781 -1749.1823)
(200.40388 -283.10883 -612.66855)
(-7229.6941 345.24804 1611.637)
(946.25476 -36.231854 -994.2827)
(143.97224 -14.080239 -465.25085)
(201.94807 49.219286 -271.56909)
(251.16983 -13.453663 -344.08842)
(-6426.6276 -150.44507 -1787.4035)
(-5160.383 -1088.175 -970.51065)
(48.316496 -536.77314 -1488.4831)
(-59317.503 -2880.4035 2747.0873)
(-836.06665 -49.31686 -520.01029)
(-12365.634 64.570465 322.28666)
(423.80156 -177.61644 -1011.7352)
(109.17072 -6.0274211 -86.202766)
(154.81558 -64.022313 -466.70054)
(254.61663 -44.948899 -355.08772)
(78.492032 -41.351063 87.983197)
(241.1296 -109.17344 -314.32988)
(347.36361 -117.52834 -787.85608)
(72.393426 76.426304 -595.91469)
(317.30816 -25.929776 -691.53753)
(700.6937 42.91226 -771.67541)
(607.6806 -63.137223 -597.9678)
(-13.586824 6.6081935 -432.55164)
(502.75875 -24.739278 -667.19695)
(177.67469 -68.071939 -458.93453)
(267.4152 -79.328111 -574.8017)
(161.65262 2.1102749 -287.27309)
(469.0916 -62.171236 -521.31747)
(274.682 -94.346969 -338.49749)
(411.70963 -166.81123 -578.8146)
(186.65694 -19.359337 -186.8099)
(313.95665 -9.8686228 -267.30129)
(1172.4499 -60.465067 -567.72402)
(605.67969 -62.660106 -466.50626)
(687.84978 -64.219798 -52.458777)
(101.57731 92.969889 -220.94)
(963.77514 -71.053931 35.252335)
(659.34781 -6.219977 -53.10429)
(263.12402 43.133498 -227.34723)
(512.34933 -62.417297 -421.70528)
(201.22852 -20.619771 -188.6724)
(-89.438399 219.02978 -345.08777)
(472.64291 37.674493 238.84237)
(591.94655 -13.783018 -32.352273)
(215.8683 -68.893432 91.450147)
(602.45725 -96.200485 -461.5086)
(768.02888 -224.49886 -650.55742)
(629.06506 -104.66912 -507.2671)
(1146.7986 -234.95768 107.48834)
(661.59671 -84.467425 -35.233837)
(1436.5727 -329.27701 79.63051)
(721.54244 -335.13684 -97.593692)
(199.3345 -25.628309 -189.50395)
(530.27892 -83.001982 -456.04484)
(320.57964 -86.703277 -288.3854)
(583.20434 -74.745197 -19.328398)
(204.55463 -51.64516 79.111897)
(678.08247 -406.09456 -96.790777)
(495.0936 -37.951235 159.92068)
(382.92556 712.51209 -846.55184)
(438.1537 -38.425236 -279.51619)
(189.10076 -27.404937 -219.53475)
(116.44613 17.002683 -130.86159)
(252.85697 -32.873847 -181.13044)
(-182110.07 -382.05294 -1739.5994)
(145.73676 6.2626354 -105.21664)
(590.7023 -171.96122 -298.52697)
(458.82226 -119.50951 -430.07435)
(324.08991 -61.687937 -349.80681)
(356.95739 -225.09179 -226.27732)
(251.40727 -76.897081 -259.98442)
(360.51866 -95.420356 -165.12126)
(211.03616 9.7066336 -301.97234)
(-239.12168 17.107979 -153.86398)
(498.56906 -121.61055 72.523857)
(336.70886 -36.762329 454.57685)
(-726.59535 34.879229 625.29453)
(-14918.22 -419.98103 992.53801)
(764.12489 -252.1753 155.76642)
(-442854.6 -5484.3127 699.06667)
(-2013.7885 -69.874425 111.70565)
(474.68941 -135.41629 438.12826)
(-125764.69 3419.4964 -1104.6309)
(-252.74911 81.134352 302.47111)
(260.56221 -119.39176 177.53522)
(-2.2245555 -664.75416 780.20802)
(386.69368 -213.08704 274.43313)
(-752.03279 -163.11573 123.69253)
(1883.3971 -5.2853889 356.99216)
(-32.915613 41.422173 394.22117)
(1052.4748 -223.87826 1108.2566)
(397.98849 12.431492 425.4132)
(199.65915 -149.50938 267.85389)
(409.09221 448.67771 818.41673)
(293.45491 -308.56277 -60.49413)
(175.2746 35.283868 33.70126)
(755.4111 -192.95896 785.64474)
(204.93011 -550.47739 240.42264)
(123.63691 30.330498 144.33052)
(571.38017 -39.889248 457.85969)
(-1860.3641 32.127987 315.52212)
(451.02808 -928.9399 245.90449)
(424.72554 791.1871 942.77287)
(-477.70399 -47.843447 689.06091)
(1075.3788 -225.53454 -260.13767)
(-140514.97 4679.6305 -1296.8748)
(1235.9921 94.535546 -144.22544)
(-16565.088 1300.4905 1020.0164)
(233.66121 76.72811 -487.45958)
(1708.858 243.64421 -697.74846)
(-23424.62 2112.5503 1742.4398)
(-473.89615 92.186265 -183.71642)
(1546.3855 -242.45665 -339.43798)
(344.73518 -449.66441 167.90804)
(-11314.565 437.96823 -113.64623)
(-1045.0366 177.41009 220.92222)
(-14479.28 452.41848 2017.4991)
(-635.71983 -167.79639 131.709)
(319.69815 -161.35161 -152.92714)
(-79.199756 -89.708079 120.07493)
(172.75879 36.652716 51.093404)
(-6805.9043 200.79013 66.238427)
(-7556.7441 -113.94442 19.471144)
(-7955.8514 664.98628 -1332.3365)
(-141.42721 12.917774 -12.300189)
(-612.75643 -1.4423063 51.365783)
(280.60007 -47.162085 -297.24081)
(262.43809 17.190548 -302.0438)
(353.33365 -51.16704 -362.59999)
(330.5878 -13.472364 -347.26257)
(206.35805 115.97927 -331.8671)
(339.67356 66.631097 -274.34332)
(283.61178 -46.264165 -255.6637)
(247.28595 93.892667 -92.525603)
(157.42955 55.354582 -296.69497)
(298.38655 69.652143 -217.72381)
(137.69778 -38.937596 -116.18007)
(395.21483 38.697433 -276.47628)
(245.38414 21.263495 -343.57297)
(183.43841 40.861312 -206.84192)
(346.09795 51.331689 -471.17756)
(169.50779 78.652399 -326.74378)
(450.21289 101.258 -237.42019)
(459.55685 40.923827 -265.17642)
(1046.3671 273.21562 -87.314378)
(96.692235 23.033144 -314.33141)
(510.64767 143.57408 -227.21175)
(1174.9513 32.12355 -77.564308)
(1104.2227 -692.26927 68.703384)
(1695.1345 -215.02455 -583.83086)
(1271.3929 -272.55747 -447.49073)
(755.20951 -125.47905 -94.272957)
(1266.9822 -106.2801 -499.67016)
(818.69769 18.312631 -141.48176)
(1942.1707 -469.57094 172.60523)
(1162.8054 -720.48236 36.301563)
(704.93953 -113.63995 -29.125073)
(745.22438 74.611727 40.618798)
(156.30298 104.45513 449.33349)
(781.16814 57.207991 -96.014967)
(1839.9412 -250.34074 228.09108)
(1256.5359 -695.83648 69.473664)
(384.39749 -16.288409 -63.742358)
(237.97211 14.599419 -180.09453)
(387.70579 -47.477931 -179.89129)
(20.106637 -27.771793 -145.19987)
(350.32984 -5.7018798 -204.23717)
(195.71884 -114.13782 -79.837903)
(-3724.2889 -1224.5608 -1636.7272)
(436.64385 -64.748692 -1.8092756)
(-60.314665 -24.953393 -65.038216)
(286.28256 -93.887122 139.32972)
(207.18006 -381.92279 1818.5294)
(223.55839 -127.82302 -26.337289)
(-65404.66 -979.96739 -276.92917)
(337.65744 -45.046912 147.23044)
(1128.5315 2.434013 55.182356)
(176.16973 -261.94223 -616.22047)
(937.60232 -227.61397 -398.72772)
(666.3586 -175.26302 -140.4066)
(407.14497 -452.41816 -470.27665)
(819.39794 -224.85603 -82.127166)
(1381.2937 -35.86984 45.743758)
(588.25082 -176.49489 -61.309676)
(492.6935 -240.69223 115.88453)
(774.4047 -238.2121 -24.938028)
(268.53406 -235.90902 318.11533)
(257.47401 711.15073 -73.762877)
(120.37809 11.928451 -63.667029)
(238.59894 64.509257 121.22542)
(-2360270.5 -819433.92 6068134.6)
(131.72167 16.057079 -52.402685)
(167.71825 50.594976 662.01106)
(405.63741 -54.620641 -310.45688)
(475.18875 -102.94751 -416.87849)
(363.07356 -49.167666 -326.28626)
(389.13078 -97.868447 -220.95476)
(503.51006 15.783882 -340.81786)
(506.47024 -247.45279 -173.93518)
(383.24561 33.633505 -309.72417)
(344.90598 -61.515369 -345.79252)
(609.09312 73.559694 -658.03109)
(249.0343 -39.309767 -402.30328)
(447.14428 38.546027 -414.50158)
(315.36256 41.455649 -259.78003)
(304.21202 -93.10729 -202.37904)
(380.18387 -76.554412 -192.27778)
(472.34581 -256.84692 -15.832089)
(513.88137 -199.33428 -126.22325)
(232.95733 -158.46664 -45.165231)
(659.92669 -227.58115 -294.43141)
(353.81492 -220.1299 -202.79052)
(514.08171 -196.04112 4.9535911)
(356.78785 -76.315198 -131.52508)
(1294.2876 -414.88575 -134.06005)
(380.29086 464.23007 414.84728)
(-1615.6452 215.07794 347.88498)
(-4410.0448 1006.4602 707.4887)
(-2207.7032 -211.11208 249.29351)
(1445.3373 297.8701 -425.72728)
(-1905.4102 515.04969 2132.7731)
(-870.36917 877.84884 71.071803)
(24.535288 -113.45936 105.92007)
(42.868542 -201.84892 189.937)
(-434.07936 35.098747 87.952507)
(-19.249678 -12.201138 71.270799)
(-84.671508 -106.68138 270.39357)
(113.83835 -157.66318 59.714294)
(36.462713 -23.714708 22.750829)
(-908.18694 137.73052 -31.563529)
(-925.41675 503.1648 -156.82999)
(-9034.5778 -1218.5888 546.27896)
(-144605.5 2997.1806 3182.2301)
(-4037.8511 -688.75682 -323.98489)
(-200.20653 -63.461962 -267.47978)
(1325.9424 1852.849 99.31918)
(-63029.237 -8039.8079 -3780.6452)
(-1567.0961 -313.475 10.528686)
(90.219263 -2.2815689 -0.49766978)
(91.287663 -0.9758274 0.081702016)
(63.040534 -0.59508187 -1.2030258)
(74.804998 0.6225521 -1.8745146)
(87.191565 -2.112228 -0.39055701)
(78.951889 -0.057595855 -0.50676948)
(87.884237 -0.22043013 0.18435961)
(84.25142 -4.1602009 -2.1807933)
(89.997147 -1.5860918 -0.32890265)
(83.324491 0.17933018 -1.4404462)
(89.97258 -0.40372647 -0.2570297)
(89.191177 -0.039118331 0.087668945)
(86.545647 -1.7256359 0.87705919)
(90.094043 -1.8680843 0.12580551)
(95.217208 3.1739151 0.51467986)
(90.226593 -0.51940927 0.061425463)
(88.036709 -0.074379356 0.86882157)
(89.08242 0.90029693 1.1998597)
(85.688604 1.825275 2.0273318)
(56.674199 0.18040466 0.62960483)
(79.034615 1.3846324 -0.48421529)
(61.698017 0.1036243 -1.9053457)
(82.588914 0.9260099 -1.3800277)
(87.011688 -0.33335349 0.1272761)
(83.750997 0.29519771 -0.52052514)
(89.106079 0.9083072 -0.057217606)
(77.137864 -0.018022939 -1.3894123)
(89.368943 0.10910152 -0.36648729)
(86.835208 0.28862544 -1.2024513)
(90.064945 1.0266053 -0.35633381)
(88.343696 0.14074006 0.57872557)
(89.704278 0.61704208 0.043936371)
(91.426529 -2.5920216 0.80066644)
(89.999739 0.15783339 -0.080218304)
(88.064198 -0.018901791 0.88097458)
(90.546131 0.91997929 -0.0085088161)
(87.002904 -0.1911403 0.13079819)
(83.744122 0.14180854 2.2934038)
(94.171759 -2.4604467 0.73661241)
(89.681218 1.4047875 -0.18680135)
(86.726307 2.3392123 -0.99350884)
(90.232858 1.4881268 -0.42658052)
(90.648556 1.5687551 -0.14384633)
(92.475345 -3.5421651 1.4836217)
(90.744451 -2.0679248 -0.44407899)
(86.580268 -4.5680914 -1.6990749)
(92.037592 -2.0058599 0.37106579)
(91.542053 -1.0709724 0.042512252)
(91.851992 -2.9509712 1.4118585)
(84.941627 -2.1091806 -0.43276149)
(73.382235 0.55088472 -2.1264989)
(81.110177 -2.7790736 -2.1109146)
(79.121868 0.54006958 -3.9310454)
(90.661579 -1.5538338 -0.3507678)
(82.788655 0.21244772 -1.7250735)
(90.14444 -0.40441218 -0.21614351)
(87.666862 -2.1245651 -2.4354372)
(92.258103 -1.4979505 0.22266972)
(86.897955 -0.068146226 -3.0130533)
(92.901732 -0.16398911 0.079561595)
(92.859348 3.6768356 1.1532514)
(90.491098 -0.50768278 0.20628198)
(88.456014 -0.12150959 1.3502638)
(91.942332 -1.1832612 1.0321492)
(92.157448 3.6511836 2.2798351)
(92.837422 -0.073397045 1.095189)
(90.733204 0.026778297 3.4670467)
(83.793923 1.6362925 2.7547416)
(87.844568 -1.558258 4.1368526)
(60.357384 0.045231749 -2.2811556)
(83.876152 0.89050531 -1.6164031)
(71.503242 0.046523044 -4.1026166)
(83.429236 0.69297197 -3.6109546)
(88.413938 -0.080934201 1.5191039)
(90.869047 0.86185798 0.074870595)
(87.616832 0.92555846 1.6120624)
(92.73452 -0.33179105 1.0708403)
(90.902911 -0.055947265 3.3175231)
(92.472613 0.74544219 1.0639191)
(90.212912 0.56641407 2.6149703)
(92.097879 -2.3532423 1.5984155)
(88.879835 -0.17020424 3.6536797)
(89.204632 -2.7596476 3.1695906)
(79.973508 2.4714734 -1.4192505)
(80.721559 2.5723001 -2.5734142)
(90.506158 1.445273 -0.3405038)
(88.669462 1.3916846 -2.6457029)
(92.371976 1.3797428 0.15526341)
(91.686599 -3.5502591 1.4049377)
(92.218401 0.86067479 1.0419183)
(90.893729 -0.58649008 1.9848328)
(94.830964 -3.0399722 0.99714186)
(87.835035 -3.8902457 -3.4814008)
(87.509903 -4.7255131 -1.926348)
(93.02966 -2.0473582 0.51877481)
(93.945381 -4.2544237 -3.333073)
(98.23611 -2.3025914 2.3514681)
(92.880711 -2.9046225 1.2900831)
(97.318095 -1.2960038 4.3551787)
(95.161051 3.9808813 5.0127083)
(82.077354 -2.8099217 -2.579116)
(82.256266 0.22847373 -5.1908684)
(95.040146 -5.3445869 -7.1511973)
(89.9227 -0.73528059 -9.7838654)
(93.362176 -1.556198 0.52608773)
(89.225523 -0.26040544 -3.8204607)
(94.202977 -0.33170027 0.23496967)
(98.321146 -4.4069308 -5.4146349)
(99.304752 -1.959459 2.1846585)
(96.489159 -0.89094214 -6.9026988)
(100.34619 -0.59135909 1.6375789)
(92.015849 4.2095723 3.4638762)
(93.746627 -0.25339705 1.4648217)
(91.337542 -0.0020021341 4.3789263)
(98.264983 -1.1076586 4.420035)
(93.749319 0.75579538 8.6895693)
(99.38517 -0.3485136 4.1259832)
(94.819823 0.21566876 9.776866)
(89.250403 -0.85387842 4.2996434)
(93.043048 3.7808726 5.436761)
(92.646431 0.90149638 10.992487)
(79.38408 -0.072290309 -5.2928276)
(87.443295 0.98413436 -4.3558432)
(80.174233 -0.13092375 -9.9085919)
(96.219412 3.0018513 -8.3898065)
(87.833873 -4.0347448 5.3207026)
(92.545519 0.044553295 11.385869)
(91.329731 -1.2299653 11.104507)
(89.354624 2.1488493 -3.1327024)
(92.864805 5.4289859 -7.6478547)
(93.906092 1.4173488 0.44670049)
(97.136486 4.0944259 -5.4257829)
(99.335594 1.8518039 2.1740919)
(90.73536 0.073764887 3.9524558)
(98.34787 0.9489768 4.3198599)
(93.536131 -0.38042437 9.4427691)
(92.093998 -4.1084968 6.1769237)
(89.328768 -4.1707688 -4.3314664)
(96.385613 -6.3401111 -8.0810218)
(95.628685 -4.4192088 -3.7391139)
(100.73316 -2.5840611 3.4372004)
(114.18104 -15.454884 -9.0033868)
(113.0169 -3.8305557 8.7759825)
(99.407036 -1.1245741 5.7340525)
(95.751352 4.2059491 6.81062)
(110.27578 -1.0487155 13.161859)
(101.59612 4.4152701 16.138517)
(97.203034 3.2873314 5.0476299)
(97.903244 -6.8618986 -8.7704278)
(92.417856 -1.1974999 -12.181945)
(112.63665 -14.944741 -16.770938)
(107.93678 -2.808696 -22.591831)
(95.130447 1.1468119 11.440767)
(102.34388 -0.42477327 5.767494)
(96.51987 0.23639323 12.35974)
(112.79153 -1.4723587 13.452153)
(103.27539 2.8372325 23.049729)
(115.55371 -0.96036425 12.091011)
(104.64296 0.65269125 24.703485)
(94.096536 0.34769059 14.011659)
(97.887864 5.386519 18.131634)
(100.0419 0.78558844 27.871277)
(82.142683 -0.25098305 -12.485828)
(99.215834 4.059957 -10.39549)
(-62.29183 -0.83142835 -4.8095384)
(105.39808 -0.25742513 -23.452816)
(114.19119 8.6758321 -20.348924)
(93.160676 -1.745796 13.922176)
(100.90007 0.015574501 27.597674)
(100.6199 -1.9868828 27.342058)
(96.2284 7.3306132 -9.674974)
(115.36863 10.965699 -17.461891)
(102.25312 2.1128487 3.1129456)
(118.66613 9.2530184 -11.400436)
(116.9154 3.5529108 7.9590877)
(108.19176 3.0520896 9.2419833)
(95.977361 -0.36226894 11.651546)
(113.74341 1.535975 13.217012)
(103.7296 -2.312622 23.759243)
(106.82127 0.64630523 10.611441)
(99.671512 -4.064264 27.130294)
(102.3884 -8.0071525 -9.8961518)
(143.40701 -31.787492 -20.07158)
(122.93493 -19.83408 -10.725073)
(119.83867 -4.282136 11.881396)
(159.30886 -32.208404 -14.092354)
(150.18519 -9.5530192 27.488967)
(116.38853 -1.2283096 17.733385)
(100.82567 3.026419 19.287041)
(141.98119 -3.0050443 37.21604)
(120.36298 11.821432 58.140587)
(98.977462 4.2424566 14.348799)
(104.09999 7.2273264 33.962375)
(122.1833 -17.317581 -19.78278)
(20.451163 3.0631342 -7.5344707)
(122.68626 -3.8706287 -28.225761)
(161.87076 -29.431699 -33.021863)
(92.481243 5.2063298 -56.9983)
(174.70175 -9.8524824 -51.23451)
(102.29106 1.3015718 34.75793)
(113.91429 11.00131 63.057765)
(118.05265 2.5590692 66.216302)
(121.76108 -0.37355905 -29.360672)
(125.3028 10.884763 -25.781743)
(41.594501 -2.6523583 -87.220441)
(165.98877 -1.5608595 -52.098232)
(171.28472 22.747856 -43.164733)
(103.3356 -3.0669633 34.480427)
(118.61828 -0.16041875 66.698092)
(114.25949 -5.9733947 65.729123)
(124.44407 12.880898 -21.918689)
(164.46666 30.264271 -36.532029)
(124.38233 4.3789506 10.682744)
(113.61758 3.8629244 12.180609)
(169.82044 25.315401 -21.177814)
(156.98665 8.2870501 24.791906)