/*--------------------------------*- C++ -*----------------------------------*\
  =========                 |
  \\      /  F ield         | OpenFOAM: The Open Source CFD Toolbox
   \\    /   O peration     | Website:  https://openfoam.org
    \\  /    A nd           | Version:  12
     \\/     M anipulation  |
\*---------------------------------------------------------------------------*/
FoamFile
{
    format      ascii;
    class       surfaceScalarField;
    location    "1";
    object      phi;
}
// * * * * * * * * * * * * * * * * * * * * * * * * * * * * * * * * * * * * * //

dimensions      [1 0 -1 0 0 0 0];

internalField   nonuniform List<scalar> 
127868
(
0.263087
0.246685
541.099
0.435489
0.200039
541.136
0.526628
0.156437
541.12
0.510087
0.134418
541.072
0.379292
0.109383
541.033
0.161454
0.0890122
541.013
-0.0808735
0.0826532
541.001
-0.285387
0.0965606
541.016
-0.380296
0.089528
541.039
-0.369455
0.100278
541.066
-0.260949
0.114378
541.099
-0.100232
0.1383
541.119
0.0796241
0.139325
541.126
0.239176
0.139621
541.124
0.349998
0.120416
541.11
0.367459
0.106985
541.084
0.288966
0.0937957
541.056
0.111127
0.0992187
541.036
-0.104456
0.0853646
541.021
-0.303204
0.0887066
541.03
-0.42771
0.105126
541.041
-0.451194
0.12675
541.067
-0.380526
0.147066
541.103
-0.236361
0.192123
541.119
0.237704
541.074
0.218598
0.403546
541.14
0.400083
0.366259
541.089
0.495615
0.308774
541.057
0.475992
0.249313
541.039
0.341747
0.198658
541.019
0.127722
0.164842
541.007
-0.0901224
0.138968
541.01
-0.251769
0.132939
541.026
-0.34525
0.148808
541.049
-0.342202
0.1803
541.076
-0.25387
0.219442
541.108
-0.0977579
0.256752
541.132
0.0800615
0.279392
541.149
0.240845
0.263819
541.138
0.332817
0.228937
541.118
0.341926
0.192866
541.092
0.2633
0.158532
541.066
0.122999
0.141632
541.043
-0.0730761
0.147665
541.026
-0.270923
0.170302
541.018
-0.397185
0.193652
541.024
-0.421742
0.23579
541.032
-0.347118
0.291331
541.045
-0.191222
0.347553
541.072
0.381339
541.119
0.168955
0.488884
541.124
0.337895
0.452292
541.054
0.418391
0.375476
541.055
0.39785
0.297802
541.035
0.282569
0.236313
541.011
0.104359
0.195777
540.998
-0.0820953
0.170984
540.996
-0.232681
0.179818
541.009
-0.31439
0.22157
541.03
-0.310793
0.281762
541.055
-0.229869
0.346031
541.084
-0.0890035
0.393621
541.103
0.0747852
0.415973
541.114
0.219141
0.399362
541.107
0.302053
0.35794
541.092
0.310384
0.298202
541.068
0.241624
0.236649
541.043
0.110179
0.193717
541.024
-0.0569121
0.183408
541.012
-0.218605
0.202558
541.01
-0.327508
0.232497
541.018
-0.354002
0.284533
541.033
-0.291335
0.354469
541.046
-0.147115
0.421747
541.044
0.451169
541.103
0.145772
0.467699
541.098
0.28371
0.433581
541.035
0.344342
0.352256
541.041
0.326215
0.27731
541.017
0.233893
0.220066
540.998
0.0876468
0.188919
540.99
-0.0625515
0.174501
540.989
-0.180954
0.209715
540.994
-0.240567
0.279437
541.006
-0.235635
0.368259
541.024
-0.169968
0.456456
541.043
-0.0636213
0.518708
541.057
0.0565051
0.546062
541.063
0.163515
0.523335
541.06
0.228354
0.467645
541.049
0.236649
0.383488
541.034
0.18614
0.295573
541.017
0.0841825
0.224534
541.007
-0.048218
0.186876
541.002
-0.179497
0.194815
541.001
-0.263493
0.216789
541.005
-0.283309
0.264795
541.015
-0.23513
0.328087
541.032
-0.126703
0.397276
541.031
0.427669
541.067
0.122502
0.34253
541.057
0.23452
0.307695
541.027
0.28443
0.244666
541.023
0.269298
0.194443
541.003
0.19726
0.158669
540.99
0.0900704
0.145934
540.987
-0.0191895
0.164711
540.98
-0.102477
0.226528
540.982
-0.144322
0.318213
540.991
-0.141873
0.42513
541.003
-0.100417
0.526062
541.014
-0.0364846
0.598977
541.023
0.035413
0.630724
541.027
0.098685
0.601024
541.025
0.13893
0.532174
541.019
0.142395
0.434684
541.01
0.107604
0.32955
541.001
0.0354345
0.238043
540.995
-0.0605066
0.174029
540.993
-0.151708
0.147283
540.998
-0.215139
0.152662
540.998
-0.230658
0.18003
541.004
-0.192178
0.218562
541.017
-0.104954
0.270881
541.023
0.303131
541.039
0.104888
0.14833
541.041
0.205224
0.113768
541.017
0.246499
0.0867519
541.011
0.239636
0.0686702
540.997
0.185996
0.0723952
540.99
0.112631
0.0920073
540.983
0.050517
0.145244
540.974
-0.0010159
0.232815
540.977
-0.0337082
0.339436
540.979
-0.0393942
0.452553
540.983
-0.0261141
0.555251
540.987
-0.00559725
0.629205
540.989
0.00818815
0.662735
540.988
0.0276839
0.628931
540.99
0.0399331
0.555836
540.989
0.0341534
0.454881
540.988
0.00507778
0.343777
540.987
-0.0376698
0.236974
540.987
-0.0866567
0.14748
540.985
-0.146367
0.0873812
540.992
-0.193498
0.0606485
540.998
-0.201172
0.0476094
541.001
-0.169243
0.0555388
541.009
-0.0883817
0.0714673
541.017
0.102805
541.028
0.0935103
-0.0587265
541.028
0.176202
-0.0883224
541.021
0.217745
-0.0777925
541.009
0.22076
-0.0586396
540.997
0.202429
-0.0169888
540.985
0.167717
0.0479242
540.976
0.135221
0.130599
540.969
0.109798
0.234965
540.963
0.0853538
0.350714
540.959
0.0611041
0.463865
540.956
0.0372188
0.558747
540.953
0.0119406
0.623553
540.95
-0.00868511
0.649508
540.948
-0.0354809
0.622298
540.951
-0.0598838
0.554852
540.955
-0.083682
0.458877
540.96
-0.105314
0.346153
540.966
-0.124091
0.230774
540.972
-0.147138
0.124719
540.979
-0.173838
0.0382414
540.985
-0.186381
-0.0358486
540.993
-0.182747
-0.0855662
541.002
-0.147097
-0.112757
541.011
-0.0852812
-0.126307
541.025
-0.114807
541.02
0.105322
-0.245282
541.033
0.167009
-0.229167
541.038
0.220763
-0.208084
541.02
0.250153
-0.157684
541.002
0.259398
-0.0844436
540.986
0.251681
0.0116089
540.978
0.238827
0.119841
540.962
0.222791
0.232114
540.95
0.198348
0.346141
540.938
0.158194
0.44936
540.927
0.102614
0.52837
540.919
0.0368635
0.57794
540.913
-0.03535
0.597342
540.912
-0.102069
0.575338
540.915
-0.157171
0.521231
540.921
-0.196148
0.439323
540.932
-0.218522
0.335027
540.945
-0.229909
0.220744
540.959
-0.237179
0.107065
540.972
-0.238772
-0.00378939
540.987
-0.225312
-0.107465
540.995
-0.194511
-0.186955
541.007
-0.142586
-0.243772
541.024
-0.100116
-0.26675
541.043
-0.294155
541.035
0.105353
-0.332851
541.048
0.175133
-0.302703
541.057
0.25574
-0.274714
541.035
0.315581
-0.206201
541.009
0.348013
-0.116523
540.991
0.356648
-0.0109908
540.976
0.352941
0.105446
540.955
0.336494
0.216039
540.935
0.301529
0.318141
540.915
0.240582
0.401815
540.898
0.154305
0.461621
540.886
0.0525403
0.494613
540.882
-0.0537473
0.507871
540.88
-0.155266
0.491812
540.884
-0.240964
0.453037
540.891
-0.299854
0.389359
540.904
-0.332703
0.303366
540.924
-0.345299
0.199575
540.945
-0.34483
0.0872895
540.966
-0.33137
-0.0315872
540.987
-0.297889
-0.140769
541.001
-0.239011
-0.236384
541.018
-0.161075
-0.311363
541.044
-0.0963127
-0.344392
541.066
-0.37272
541.056
0.115133
-0.320183
541.067
0.205688
-0.296191
541.078
0.312707
-0.267654
541.055
0.399849
-0.198548
541.022
0.450326
-0.11196
540.998
0.4671
-0.0148073
540.975
0.464681
0.0843994
540.947
0.439213
0.178824
540.92
0.385403
0.260044
540.893
0.301592
0.320392
540.873
0.192396
0.36037
540.861
0.0641155
0.37953
540.856
-0.0680864
0.387588
540.853
-0.195019
0.377416
540.858
-0.304035
0.352721
540.867
-0.385925
0.308259
540.882
-0.436905
0.244785
540.904
-0.458148
0.161304
540.931
-0.456241
0.0645893
540.96
-0.437808
-0.0362751
540.988
-0.387651
-0.136057
541.01
-0.302609
-0.226899
541.034
-0.196321
-0.302109
541.069
-0.109375
-0.334511
541.093
-0.35457
541.085
0.130864
-0.222926
541.093
0.242042
-0.208563
541.102
0.371231
-0.189541
541.077
0.482042
-0.137677
541.035
0.545478
-0.0743988
541.003
0.566303
-0.00607838
540.973
0.558403
0.0576449
540.939
0.518488
0.120777
540.906
0.445771
0.172332
540.877
0.343016
0.209239
540.856
0.216262
0.231512
540.842
0.0707772
0.240815
540.837
-0.0779524
0.244891
540.834
-0.221782
0.239269
540.839
-0.347714
0.225863
540.849
-0.449222
0.19936
540.868
-0.518405
0.159485
540.89
-0.55409
0.106226
540.921
-0.557453
0.0403676
540.954
-0.53639
-0.023099
540.989
-0.473629
-0.0948596
541.019
-0.364308
-0.160956
541.049
-0.233272
-0.218694
541.093
-0.122642
-0.241931
541.119
-0.241831
541.111
0.133282
-0.0741232
541.107
0.277914
-0.0624951
541.116
0.411258
-0.0586511
541.09
0.536412
-0.0415717
541.043
0.613457
-0.0192146
541.007
0.63765
0.00551507
540.971
0.623577
0.0254144
540.932
0.569949
0.0478637
540.898
0.482054
0.0649583
540.868
0.365501
0.0775033
540.846
0.227998
0.0844489
540.83
0.0737331
0.0872979
540.824
-0.0827247
0.0883136
540.821
-0.235208
0.0856537
540.828
-0.372167
0.0809446
540.839
-0.487477
0.0714412
540.859
-0.571823
0.0571649
540.883
-0.621336
0.0390185
540.913
-0.630727
0.0133867
540.95
-0.605406
-0.00376043
540.989
-0.530364
-0.0310169
541.024
-0.406922
-0.0532873
541.059
-0.268657
-0.0742937
541.108
-0.143487
-0.080959
541.14
-0.0800927
541.125
0.134951
0.0961986
541.11
0.292596
0.0958493
541.123
0.43024
0.0900432
541.096
0.56096
0.0666109
541.045
0.645812
0.0413811
541.007
0.668418
0.0142452
540.968
0.649486
-0.00742877
540.928
0.589244
-0.0304087
540.893
0.494767
-0.0473165
540.863
0.372326
-0.0594695
540.84
0.230593
-0.0667866
540.823
0.0734018
-0.069366
540.817
-0.0854059
-0.0716251
540.815
-0.240742
-0.0719873
540.821
-0.381898
-0.0689659
540.834
-0.502653
-0.0619177
540.854
-0.592637
-0.0502737
540.879
-0.647295
-0.0341078
540.91
-0.663388
-0.00847263
540.946
-0.635855
0.0101027
540.986
-0.555208
0.0409875
541.025
-0.425754
0.0667381
541.062
-0.286002
0.0892214
541.114
-0.142607
0.0970595
541.151
0.101876
541.127
0.13348
0.244143
541.101
0.274868
0.24084
541.11
0.409916
0.219005
541.084
0.536664
0.162562
541.037
0.61453
0.0971894
541.003
0.637677
0.0271668
540.967
0.622409
-0.0385677
540.928
0.56776
-0.100905
540.892
0.479044
-0.152924
540.863
0.36196
-0.190513
540.841
0.224507
-0.213516
540.826
0.0710943
-0.223002
540.819
-0.0846741
-0.22956
540.817
-0.236792
-0.227247
540.825
-0.373595
-0.215511
540.837
-0.488579
-0.191234
540.857
-0.571932
-0.15301
540.881
-0.619927
-0.100862
540.91
-0.629367
-0.0350621
540.947
-0.604757
0.0301561
540.986
-0.529409
0.104332
541.021
-0.405696
0.172525
541.055
-0.265803
0.229794
541.103
-0.142844
0.252692
541.134
0.264921
541.12
0.125912
0.339479
541.082
0.236561
0.321324
541.094
0.365452
0.291462
541.068
0.477227
0.22071
541.026
0.54314
0.1327
540.995
0.565578
0.0348159
540.965
0.558521
-0.0664589
540.931
0.519129
-0.15971
540.898
0.446688
-0.241363
540.869
0.34332
-0.302208
540.847
0.215168
-0.342458
540.833
0.0683126
-0.361375
540.827
-0.0821573
-0.372714
540.825
-0.227555
-0.366485
540.832
-0.35427
-0.344086
540.844
-0.455185
-0.302401
540.863
-0.521921
-0.240616
540.886
-0.55451
-0.157346
540.917
-0.555124
-0.0601923
540.95
-0.531596
0.0420421
540.983
-0.467221
0.14503
541.011
-0.359139
0.237858
541.042
-0.230542
0.311016
541.084
-0.120832
0.341448
541.11
0.374413
541.101
0.110886
0.345243
541.052
0.199026
0.318346
541.065
0.304207
0.290332
541.042
0.392501
0.220724
541.009
0.445342
0.131121
540.985
0.46539
0.0249419
540.962
0.464889
-0.0909403
540.934
0.440519
-0.200638
540.907
0.387285
-0.302378
540.88
0.302964
-0.385715
540.859
0.191777
-0.445476
540.846
0.060282
-0.478011
540.842
-0.0758343
-0.495066
540.841
-0.205363
-0.48328
540.847
-0.31461
-0.447077
540.858
-0.394703
-0.386542
540.874
-0.441973
-0.302083
540.898
-0.458518
-0.198156
540.925
-0.451896
-0.084792
540.952
-0.430589
0.0352022
540.979
-0.379258
0.146311
540.999
-0.295624
0.242247
541.022
-0.192713
0.314794
541.055
-0.107926
0.34491
541.078
0.385515
541.068
0.100615
0.244886
541.031
0.170965
0.22331
541.042
0.250733
0.20517
541.021
0.309433
0.157803
540.994
0.342521
0.0872743
540.976
0.355507
-0.00887931
540.961
0.353911
-0.113133
540.939
0.33886
-0.224685
540.918
0.303847
-0.336974
540.897
0.241827
-0.438857
540.88
0.153027
-0.518087
540.869
0.0466593
-0.566721
540.865
-0.0646847
-0.589693
540.864
-0.169367
-0.571428
540.87
-0.254837
-0.51987
540.879
-0.310768
-0.440425
540.894
-0.33816
-0.337468
540.915
-0.344637
-0.223265
540.936
-0.33838
-0.109379
540.955
-0.323208
0.0012371
540.974
-0.290442
0.103525
540.987
-0.235678
0.181597
541.004
-0.161976
0.233714
541.03
-0.0983243
0.253256
541.051
0.287972
541.042
0.111305
0.0398045
541.014
0.161324
0.0651226
541.021
0.215268
0.053883
541.003
0.247426
0.0372771
540.986
0.258419
0.000707286
540.97
0.251991
-0.0602436
540.961
0.241011
-0.138142
540.944
0.226506
-0.239859
540.931
0.20184
-0.352911
540.918
0.159629
-0.464134
540.907
0.0995152
-0.558185
540.898
0.0283786
-0.621974
540.893
-0.0488128
-0.650662
540.895
-0.11883
-0.625714
540.9
-0.173737
-0.559947
540.908
-0.208463
-0.465968
540.921
-0.223756
-0.354143
540.935
-0.228609
-0.23994
540.948
-0.231
-0.135624
540.959
-0.231466
-0.0508531
540.972
-0.220518
0.0189693
540.978
-0.194044
0.0627521
540.992
-0.146439
0.0835399
541.009
-0.106294
0.0944267
541.028
0.078607
541.019
0.0911569
-0.185632
541.014
0.171094
-0.152866
541.005
0.21352
-0.128125
540.994
0.218869
-0.109342
540.984
0.203654
-0.109787
540.971
0.169883
-0.125022
540.961
0.139183
-0.169968
540.951
0.114703
-0.252283
540.944
0.0918702
-0.356092
540.938
0.0659036
-0.465989
540.934
0.0364719
-0.566099
540.931
0.00477572
-0.63808
540.929
-0.0265762
-0.670121
540.929
-0.0563114
-0.639549
540.934
-0.0797764
-0.567843
540.941
-0.0979877
-0.468391
540.948
-0.111088
-0.357885
540.954
-0.123907
-0.252924
540.96
-0.143054
-0.168662
540.965
-0.169669
-0.112652
540.97
-0.185648
-0.0914939
540.977
-0.18462
-0.0877787
540.986
-0.151533
-0.103971
540.996
-0.0869773
-0.127197
541.011
-0.161034
541.007
0.101532
-0.391414
541.032
0.199485
-0.357195
541.006
0.24343
-0.298295
541.001
0.240709
-0.249291
540.988
0.193478
-0.212164
540.978
0.124836
-0.195086
540.972
0.0607728
-0.205359
540.96
0.0101922
-0.260474
540.96
-0.0238957
-0.34473
540.96
-0.0353293
-0.447441
540.961
-0.0291746
-0.544889
540.965
-0.0154581
-0.616609
540.968
-0.00584006
-0.646825
540.969
0.00741628
-0.613987
540.974
0.0195776
-0.546647
540.975
0.0184687
-0.451192
540.976
-0.00309243
-0.348793
540.976
-0.0411282
-0.259852
540.976
-0.0895459
-0.203641
540.973
-0.149973
-0.186713
540.979
-0.199467
-0.198259
540.983
-0.208838
-0.234418
540.988
-0.177108
-0.28291
540.999
-0.0945006
-0.341863
541.008
-0.378997
541.019
0.120453
-0.521429
541.055
0.232701
-0.490156
541.022
0.284136
-0.409849
541.016
0.275009
-0.335911
540.997
0.210667
-0.277526
540.983
0.109517
-0.243337
540.978
1.94533e-05
-0.221913
540.97
-0.0862458
-0.250613
540.969
-0.130418
-0.312777
540.974
-0.132968
-0.395519
540.984
-0.0983843
-0.479653
540.995
-0.0430969
-0.538805
541.003
0.0190976
-0.561632
541.008
0.0768312
-0.535942
541.009
0.116794
-0.481978
541.006
0.123668
-0.399946
540.999
0.0926033
-0.315552
540.991
0.0242457
-0.250351
540.985
-0.0699416
-0.221237
540.982
-0.16239
-0.240624
540.986
-0.229371
-0.270098
540.987
-0.248346
-0.326699
540.996
-0.209707
-0.398973
541.012
-0.11459
-0.476371
541.02
-0.510808
541.038
0.143241
-0.542984
541.103
0.285514
-0.508114
541.031
0.347816
-0.429324
541.036
0.333484
-0.350296
541.016
0.24756
-0.28688
540.996
0.108661
-0.246422
540.987
-0.0370189
-0.217002
540.983
-0.156891
-0.219101
540.984
-0.219868
-0.254447
540.993
-0.220343
-0.307321
541.008
-0.162614
-0.367836
541.025
-0.0671412
-0.411447
541.037
0.0421613
-0.430607
541.046
0.140546
-0.410329
541.045
0.203337
-0.370316
541.037
0.212971
-0.312279
541.024
0.16527
-0.255113
541.01
0.0652978
-0.220932
541.001
-0.0664865
-0.218068
540.996
-0.198048
-0.247371
540.994
-0.285389
-0.285246
541
-0.307885
-0.34502
541.016
-0.259064
-0.419696
541.037
-0.13941
-0.495782
541.037
-0.528103
541.08
0.168432
-0.443956
541.135
0.345579
-0.410652
541.055
0.427142
-0.34707
541.052
0.407562
-0.287258
541.036
0.296224
-0.234727
541.015
0.127004
-0.202019
541
-0.0539749
-0.173994
540.993
-0.204375
-0.165236
541.002
-0.288927
-0.174152
541.019
-0.290317
-0.201464
541.041
-0.218062
-0.238347
541.067
-0.0896635
-0.276148
541.084
0.0597779
-0.29285
541.097
0.192371
-0.27731
541.092
0.272252
-0.241213
541.079
0.280962
-0.205257
541.058
0.215174
-0.174539
541.036
0.0837191
-0.167054
541.02
-0.0851803
-0.176609
541.007
-0.248789
-0.205771
541.009
-0.359954
-0.235408
541.021
-0.384141
-0.284964
541.039
-0.31627
-0.339658
541.057
-0.161182
-0.399536
541.059
-0.436189
541.122
0.216587
-0.261388
541.148
0.409346
-0.21743
541.085
0.506154
-0.169065
541.055
0.487961
-0.143807
541.031
0.355031
-0.121327
541.022
0.151623
-0.102515
541.005
-0.0657196
-0.0919371
541.004
-0.222873
-0.110155
541.02
-0.316237
-0.103037
541.041
-0.3194
-0.112362
541.064
-0.239464
-0.126851
541.093
-0.0946067
-0.133592
541.11
0.0637828
-0.134834
541.124
0.21158
-0.141717
541.118
0.300623
-0.129874
541.104
0.308964
-0.114465
541.08
0.236829
-0.105167
541.058
0.0937823
-0.104101
541.038
-0.112838
-0.0937422
541.02
-0.312487
-0.105094
541.015
-0.441901
-0.123268
541.025
-0.461699
-0.146849
541.034
-0.374784
-0.170367
541.056
-0.20522
-0.218404
541.092
-0.262811
541.139
0.260502
541.131
0.442789
541.148
0.541218
541.136
0.518899
541.104
0.388546
541.055
0.184085
541.032
-0.0392379
541.014
-0.243306
541.014
-0.344171
541.03
-0.3389
541.051
-0.243331
541.082
-0.0953297
541.101
0.0765109
541.111
0.227325
541.108
0.327056
541.094
0.341221
541.069
0.253041
541.049
0.0647076
541.034
-0.147341
541.027
-0.34756
541.039
-0.476149
541.055
-0.498608
541.097
-0.412865
541.126
-0.251228
541.142
541.104
0.335077
0.331445
544.326
0.366214
0.229201
544.679
0.320525
0.253196
544.613
0.215186
0.287864
544.546
0.0649334
0.137431
544.486
-0.140207
0.103318
544.461
-0.344973
0.0906229
544.439
-0.499882
0.0898109
544.456
-0.558666
0.0907303
544.479
-0.532822
0.111832
544.515
-0.387904
0.112446
544.539
-0.15548
0.11145
544.549
0.118551
0.102729
544.552
0.356948
0.110516
544.554
0.510008
0.11479
544.551
0.544102
0.113645
544.538
0.499327
0.092041
544.506
0.36431
0.0913463
544.488
0.1799
0.0921457
544.47
-0.00906622
0.103903
544.483
-0.155896
0.134054
544.497
-0.272921
0.278857
544.536
-0.327803
0.242262
544.59
-0.310956
0.215675
544.644
0.312132
544.296
0.235729
0.354357
544.679
0.352623
0.330677
544.641
0.439452
0.303616
544.594
0.427023
0.220211
544.56
0.313245
0.152415
544.521
0.130213
0.115728
544.497
-0.0606788
0.104375
544.493
-0.211649
0.116381
544.508
-0.288999
0.135813
544.536
-0.282372
0.173971
544.573
-0.202097
0.204047
544.611
-0.0735611
0.232144
544.644
0.0638418
0.247444
544.666
0.191153
0.23561
544.654
0.270325
0.210049
544.628
0.280249
0.180581
544.595
0.213423
0.141983
544.561
0.082053
0.12124
544.533
-0.0878483
0.108326
544.516
-0.254719
0.118351
544.513
-0.358635
0.148301
544.527
-0.371559
0.217698
544.553
-0.309586
0.288622
544.575
-0.213228
0.311842
544.615
0.331539
544.645
0.256916
0.321699
544.618
0.33947
0.37703
544.599
0.375901
0.337574
544.58
0.342356
0.233871
544.548
0.240483
0.151636
544.503
0.0840683
0.116666
544.481
-0.0757399
0.11068
544.477
-0.201094
0.140431
544.489
-0.265754
0.185964
544.515
-0.257569
0.249868
544.55
-0.183574
0.311133
544.585
-0.0691261
0.354818
544.616
0.0598085
0.376868
544.635
0.174619
0.358929
544.624
0.246302
0.319501
544.6
0.257264
0.259318
544.57
0.201356
0.194582
544.538
0.0942175
0.145944
544.512
-0.0473927
0.115852
544.499
-0.189189
0.120071
544.499
-0.283707
0.147547
544.513
-0.320106
0.222087
544.544
-0.287239
0.321144
544.563
-0.240376
0.372438
544.573
0.277758
544.589
0.282014
0.190201
544.553
0.273743
0.378938
544.58
0.273331
0.307869
544.561
0.233041
0.200232
544.516
0.147654
0.123617
544.475
0.0254733
0.0961904
544.459
-0.0974499
0.10294
544.457
-0.19146
0.149856
544.468
-0.240828
0.222011
544.487
-0.231526
0.308589
544.512
-0.166187
0.39259
544.533
-0.0636552
0.451404
544.549
0.0537317
0.476799
544.558
0.157591
0.454509
544.553
0.222135
0.4004
544.542
0.233317
0.317511
544.525
0.1913
0.230264
544.505
0.11188
0.155313
544.488
0.00372462
0.108552
544.476
-0.106828
0.0979692
544.477
-0.185478
0.118733
544.486
-0.221079
0.186292
544.513
-0.217823
0.284521
544.543
-0.278249
0.359276
544.552
0.158563
544.535
0.158672
0.0381709
544.513
0.179915
0.283962
544.538
0.187361
0.212419
544.522
0.156808
0.122424
544.485
0.0935553
0.0679082
544.455
0.00793532
0.0572482
544.446
-0.0801093
0.0913848
544.443
-0.145579
0.158632
544.449
-0.175976
0.249448
544.461
-0.164765
0.351738
544.476
-0.115619
0.447397
544.489
-0.0444703
0.517068
544.498
0.0371336
0.544898
544.502
0.10865
0.518244
544.5
0.157275
0.4515
544.494
0.169707
0.356695
544.485
0.146156
0.254108
544.475
0.0913816
0.161895
544.466
0.0150616
0.093044
544.46
-0.0602186
0.053906
544.462
-0.117832
0.0608429
544.466
-0.146477
0.107228
544.485
-0.14769
0.189505
544.512
-0.134101
0.254888
544.525
0.00965255
544.495
0.124708
-0.148353
544.494
0.145449
0.120841
544.521
0.150037
0.075296
544.504
0.127525
0.0158388
544.474
0.0808825
-0.00212726
544.451
0.025109
0.0170228
544.443
-0.0208533
0.0758118
544.437
-0.0599817
0.165639
544.443
-0.0831982
0.269381
544.446
-0.0775926
0.375641
544.45
-0.050945
0.472456
544.452
-0.0164332
0.542378
544.455
0.0119528
0.573859
544.457
0.0457665
0.542491
544.456
0.070943
0.472421
544.456
0.077049
0.375063
544.456
0.0601007
0.268164
544.457
0.0301363
0.16296
544.456
-0.00646751
0.0711783
544.452
-0.0534572
0.00671417
544.457
-0.0973195
-0.0155501
544.462
-0.119238
-0.00409883
544.476
-0.117713
0.0465611
544.497
-0.103655
0.0866754
544.511
-0.181244
544.481
0.107737
-0.327382
544.472
0.128449
-0.0472602
544.52
0.137425
-0.0638269
544.5
0.130112
-0.0887071
544.472
0.112679
-0.0726249
544.451
0.0854767
-0.0143044
544.44
0.0621252
0.0672146
544.431
0.0442992
0.169988
544.427
0.0285067
0.281315
544.423
0.0154077
0.388015
544.418
0.00882565
0.477291
544.412
0.000936924
0.538788
544.41
-0.00366296
0.560303
544.408
-0.0131038
0.538968
544.41
-0.0215044
0.474142
544.416
-0.0328247
0.381638
544.424
-0.0443295
0.273485
544.432
-0.0556547
0.161092
544.438
-0.0711419
0.0562046
544.445
-0.0930996
-0.0304682
544.452
-0.108559
-0.091728
544.46
-0.115606
-0.112952
544.476
-0.108008
-0.0962624
544.498
-0.0921359
-0.084747
544.516
-0.367609
544.469
0.101704
-0.463961
544.481
0.137119
-0.178997
544.531
0.162795
-0.170958
544.509
0.17223
-0.166471
544.48
0.176974
-0.124034
544.455
0.173367
-0.0404518
544.443
0.16516
0.0619841
544.425
0.155298
0.171377
544.413
0.139336
0.281094
544.399
0.109846
0.380318
544.385
0.0691547
0.456214
544.373
0.0220887
0.502225
544.366
-0.0296643
0.5201
544.362
-0.0760536
0.502533
544.367
-0.115189
0.450174
544.377
-0.143136
0.369644
544.392
-0.155476
0.268246
544.408
-0.160389
0.157268
544.424
-0.163168
0.0457906
544.438
-0.162805
-0.0589459
544.456
-0.156351
-0.145523
544.467
-0.146589
-0.192189
544.488
-0.121513
-0.203724
544.512
-0.0918676
-0.216733
544.532
-0.503873
544.488
0.098959
-0.511423
544.493
0.151964
-0.242961
544.55
0.205767
-0.223609
544.527
0.241567
-0.205206
544.493
0.265709
-0.144793
544.46
0.276121
-0.0541935
544.441
0.27573
0.0550886
544.416
0.264935
0.163253
544.394
0.238778
0.261956
544.371
0.189843
0.344012
544.35
0.11988
0.402823
544.334
0.0365917
0.434174
544.328
-0.0504152
0.447933
544.324
-0.131064
0.434323
544.329
-0.197092
0.394837
544.34
-0.243936
0.331429
544.36
-0.266461
0.246681
544.382
-0.272839
0.145797
544.408
-0.268978
0.0354733
544.432
-0.255918
-0.0742809
544.457
-0.232657
-0.168671
544.476
-0.196501
-0.233477
544.506
-0.143511
-0.259158
544.538
-0.0933624
-0.283112
544.561
-0.548301
544.506
0.118626
-0.482462
544.517
0.187436
-0.233187
544.578
0.267416
-0.212251
544.553
0.32607
-0.192053
544.509
0.365134
-0.129772
544.467
0.380792
-0.0454327
544.436
0.381686
0.046284
544.404
0.363724
0.137726
544.373
0.320849
0.216656
544.343
0.249967
0.27678
544.318
0.155852
0.318381
544.303
0.0466643
0.337458
544.298
-0.0659643
0.346152
544.295
-0.171838
0.337277
544.3
-0.261123
0.310278
544.311
-0.328778
0.264546
544.331
-0.36779
0.201523
544.358
-0.381056
0.119739
544.39
-0.376263
0.0256449
544.423
-0.359513
-0.0682145
544.457
-0.321431
-0.155434
544.486
-0.262967
-0.221421
544.526
-0.18333
-0.247432
544.571
-0.115346
-0.272715
544.597
-0.51342
544.539
0.121028
-0.338054
544.527
0.216548
-0.157705
544.607
0.324896
-0.141403
544.579
0.406408
-0.129093
544.521
0.456878
-0.0823014
544.472
0.47488
-0.0209722
544.431
0.470964
0.0364043
544.391
0.440557
0.0964884
544.355
0.38024
0.147718
544.321
0.291655
0.184431
544.297
0.180337
0.209121
544.282
0.0532736
0.218808
544.277
-0.0767144
0.222878
544.273
-0.200285
0.217934
544.28
-0.307562
0.202304
544.292
-0.391903
0.174139
544.312
-0.448008
0.134434
544.339
-0.473649
0.0804437
544.376
-0.473959
0.0178695
544.414
-0.455369
-0.0419277
544.455
-0.405934
-0.106161
544.494
-0.325134
-0.156099
544.542
-0.213974
-0.175112
544.601
-0.116893
-0.192488
544.63
-0.35921
544.553
0.117495
-0.108207
544.525
0.234776
-0.0388307
544.628
0.360451
-0.0339195
544.598
0.458179
-0.0318145
544.528
0.521434
-0.016092
544.473
0.54195
0.00883449
544.427
0.532422
0.0222211
544.382
0.489951
0.0459473
544.341
0.416971
0.06304
544.307
0.316226
0.0749776
544.283
0.194253
0.082713
544.269
0.0572906
0.0855662
544.264
-0.0822736
0.0857902
544.261
-0.216052
0.0834674
544.268
-0.33451
0.0780289
544.28
-0.431069
0.0675795
544.301
-0.499883
0.053104
544.328
-0.538242
0.0336415
544.366
-0.544199
0.00806322
544.408
-0.522339
-0.00801039
544.455
-0.461126
-0.0341855
544.499
-0.366127
-0.0517257
544.553
-0.241114
-0.0598581
544.625
-0.112583
-0.0647176
544.655
-0.119003
544.556
0.109324
0.157158
544.52
0.243831
0.0904768
544.639
0.377676
0.0841045
544.607
0.481084
0.0765348
544.529
0.548238
0.0574069
544.473
0.571596
0.0291115
544.427
0.550545
0.0135669
544.377
0.503947
-0.0109832
544.333
0.426698
-0.0280071
544.299
0.321347
-0.04103
544.276
0.196018
-0.0498675
544.26
0.0568375
-0.0528804
544.256
-0.0845978
-0.0563547
544.253
-0.220897
-0.0568328
544.261
-0.34304
-0.0527718
544.274
-0.444047
-0.0459447
544.296
-0.516652
-0.0347042
544.322
-0.558899
-0.018846
544.36
-0.575337
0.00325797
544.405
-0.549651
0.0202781
544.454
-0.485112
0.0476902
544.5
-0.38608
0.0658531
544.557
-0.254704
0.069393
544.635
-0.105308
0.0727683
544.668
0.157114
544.553
0.115306
0.384028
544.518
0.231006
0.205472
544.62
0.358665
0.187343
544.59
0.457651
0.171091
544.52
0.521726
0.121726
544.467
0.540646
0.0591687
544.422
0.528374
0.000300399
544.377
0.483131
-0.0611017
544.336
0.409432
-0.113962
544.302
0.309285
-0.152353
544.279
0.188612
-0.178144
544.263
0.0534529
-0.188125
544.258
-0.0844424
-0.195957
544.256
-0.2168
-0.194412
544.265
-0.334096
-0.180597
544.278
-0.429691
-0.156038
544.3
-0.49782
-0.118851
544.326
-0.536413
-0.0667347
544.363
-0.543349
-0.00553697
544.406
-0.522496
0.054072
544.451
-0.460723
0.118439
544.494
-0.365099
0.168154
544.547
-0.240431
0.184328
544.616
-0.114974
0.202047
544.646
0.390669
544.552
0.117444
0.522078
544.512
0.211993
0.273864
544.594
0.318733
0.252684
544.565
0.399788
0.230623
544.508
0.45198
0.166313
544.46
0.470986
0.0812009
544.42
0.46742
-0.0131899
544.381
0.437363
-0.10545
544.344
0.378312
-0.186333
544.31
0.290278
-0.24762
544.286
0.178447
-0.289636
544.271
0.0501676
-0.308606
544.265
-0.0817581
-0.321379
544.263
-0.207036
-0.316667
544.272
-0.314841
-0.292295
544.285
-0.398076
-0.250719
544.307
-0.451528
-0.190237
544.334
-0.474443
-0.109478
544.371
-0.472776
-0.0151615
544.408
-0.452228
0.0789349
544.448
-0.401431
0.166956
544.484
-0.321245
0.233366
544.53
-0.212032
0.2587
544.585
-0.116592
0.28325
544.613
0.536115
544.543
0.117113
0.543163
544.493
0.183341
0.275016
544.558
0.260377
0.254968
544.534
0.317792
0.235585
544.491
0.357799
0.174845
544.449
0.375976
0.081449
544.419
0.378496
-0.0275974
544.387
0.361655
-0.136209
544.356
0.319558
-0.235698
544.325
0.248345
-0.318246
544.299
0.152442
-0.377328
544.285
0.0408053
-0.40851
544.28
-0.0746128
-0.426717
544.278
-0.182651
-0.417615
544.286
-0.272546
-0.381143
544.299
-0.338969
-0.321931
544.321
-0.375095
-0.239695
544.349
-0.384386
-0.139828
544.382
-0.375591
-0.0288276
544.412
-0.356356
0.0828589
544.443
-0.317293
0.17742
544.47
-0.260127
0.242393
544.508
-0.181885
0.266983
544.55
-0.115588
0.290193
544.575
0.56237
544.519
0.0984084
0.47759
544.469
0.151047
0.192188
544.527
0.20281
0.184958
544.504
0.235351
0.182891
544.471
0.259097
0.141247
544.438
0.272606
0.0582704
544.418
0.273437
-0.0430081
544.393
0.263433
-0.152973
544.37
0.236976
-0.261927
544.346
0.186805
-0.360377
544.324
0.114302
-0.436564
544.309
0.0278423
-0.482294
544.303
-0.0625832
-0.504295
544.302
-0.145683
-0.490926
544.31
-0.211927
-0.441709
544.324
-0.256861
-0.365019
544.346
-0.275544
-0.266297
544.37
-0.277169
-0.156496
544.395
-0.268942
-0.0448703
544.417
-0.253563
0.0597725
544.439
-0.230252
0.146462
544.455
-0.195988
0.192648
544.484
-0.144269
0.202206
544.516
-0.0949885
0.213158
544.538
0.503332
544.485
0.104071
0.317142
544.452
0.13867
0.0393884
544.507
0.163654
0.0559127
544.485
0.172521
0.0838906
544.456
0.175514
0.0744968
544.43
0.171402
0.0202567
544.417
0.164018
-0.0610634
544.398
0.15447
-0.163179
544.384
0.137315
-0.2727
544.37
0.105661
-0.377932
544.355
0.061475
-0.467227
544.343
0.010632
-0.528267
544.337
-0.0455173
-0.55176
544.336
-0.0944743
-0.533965
544.345
-0.133415
-0.472419
544.358
-0.158218
-0.383127
544.377
-0.1657
-0.277299
544.394
-0.165621
-0.16682
544.409
-0.16454
-0.0632743
544.42
-0.162483
0.0210176
544.435
-0.157743
0.0804007
544.443
-0.149457
0.0977579
544.464
-0.124486
0.0765956
544.49
-0.0939494
0.0622605
544.511
0.347129
544.462
0.115731
0.110836
544.446
0.132862
-0.147821
544.5
0.138807
-0.100587
544.48
0.13008
-0.0376823
544.45
0.112847
-0.0141084
544.428
0.0847344
-0.0314104
544.415
0.0617923
-0.0852454
544.404
0.0443188
-0.171954
544.397
0.0284821
-0.273309
544.392
0.0130795
-0.376664
544.386
-0.000945221
-0.471711
544.38
-0.0135875
-0.541702
544.378
-0.0219581
-0.57314
544.38
-0.0355734
-0.543553
544.386
-0.0431868
-0.47642
544.395
-0.0502593
-0.38219
544.407
-0.0560647
-0.277681
544.416
-0.0624872
-0.174964
544.422
-0.0741541
-0.0867142
544.425
-0.0946735
-0.0260796
544.43
-0.109996
-0.00873736
544.437
-0.119064
-0.0259358
544.453
-0.111917
-0.0839277
544.478
-0.0952921
-0.12913
544.497
0.14207
544.446
0.135187
-0.0879819
544.468
0.149448
-0.322813
544.509
0.148791
-0.247255
544.491
0.127578
-0.154285
544.458
0.0851231
-0.0988351
544.433
0.0310511
-0.0864642