/*--------------------------------*- C++ -*----------------------------------*\
  =========                 |
  \\      /  F ield         | OpenFOAM: The Open Source CFD Toolbox
   \\    /   O peration     | Website:  https://openfoam.org
    \\  /    A nd           | Version:  12
     \\/     M anipulation  |
\*---------------------------------------------------------------------------*/
FoamFile
{
    format      ascii;
    class       volVectorField;
    location    "1";
    object      U;
}
// * * * * * * * * * * * * * * * * * * * * * * * * * * * * * * * * * * * * * //

dimensions      [0 1 -1 0 0 0 0];

internalField   nonuniform List<vector> 
43040
(
(0.00833146 0.00727376 29.9885)
(0.020006 0.00588097 29.985)
(0.0265387 0.00405978 29.9849)
(0.028802 0.00338072 29.9851)
(0.0244316 0.00283898 29.9852)
(0.0143735 0.00266805 29.985)
(0.00167977 0.00368981 29.9844)
(-0.00956838 0.00616435 29.9846)
(-0.0183662 0.00834486 29.9848)
(-0.0208159 0.009949 29.985)
(-0.0172655 0.0101234 29.9855)
(-0.00969946 0.00902638 29.9859)
(-0.000478875 0.00873015 29.9861)
(0.00846006 0.00884467 29.9859)
(0.0161184 0.0101016 29.9856)
(0.0199311 0.0100773 29.9853)
(0.0181727 0.00864491 29.985)
(0.0107178 0.00640671 29.9848)
(0.000380136 0.0038219 29.9846)
(-0.0106973 0.0027399 29.9852)
(-0.0200223 0.00299715 29.9852)
(-0.0243345 0.00352387 29.9849)
(-0.0229594 0.00414726 29.9847)
(-0.0177902 0.00611601 29.9849)
(-0.00735487 0.00743891 29.9881)
(0.00706017 0.018791 29.9852)
(0.0176283 0.0163101 29.9833)
(0.0249119 0.0134253 29.9831)
(0.0270183 0.0113261 29.9836)
(0.0225118 0.0091887 29.984)
(0.0123333 0.00733714 29.9841)
(0.001115 0.00581774 29.9842)
(-0.00907614 0.00519038 29.9846)
(-0.0163531 0.004975 29.985)
(-0.0190493 0.00588341 29.9852)
(-0.0164004 0.00713846 29.9855)
(-0.00945028 0.00875981 29.9857)
(-0.000402091 0.00955989 29.9859)
(0.00850195 0.00904365 29.9858)
(0.0157889 0.00753265 29.9856)
(0.0187081 0.00632444 29.9854)
(0.0166617 0.00526266 29.9852)
(0.01037 0.00543992 29.9849)
(0.00101121 0.00614915 29.9845)
(-0.00878518 0.00743222 29.9842)
(-0.0183394 0.00886173 29.984)
(-0.0227201 0.0106458 29.9835)
(-0.0214128 0.0125579 29.9829)
(-0.0154582 0.0154814 29.9832)
(-0.00606329 0.0178338 29.9849)
(0.00494124 0.0244111 29.985)
(0.0144389 0.022622 29.9829)
(0.0214455 0.0193301 29.9836)
(0.0231505 0.0156022 29.9839)
(0.0189199 0.0123839 29.984)
(0.0100721 0.0100349 29.984)
(0.00076686 0.00837076 29.9841)
(-0.00849554 0.00870503 29.9844)
(-0.0152116 0.0105108 29.9847)
(-0.0176718 0.0131861 29.9848)
(-0.0151442 0.0161367 29.9851)
(-0.00865431 0.0184602 29.9852)
(-0.000328285 0.0195058 29.9854)
(0.007869 0.0187469 29.9853)
(0.014585 0.0167195 29.9852)
(0.0173523 0.0140074 29.985)
(0.0154313 0.0112315 29.9848)
(0.00961652 0.00938682 29.9846)
(0.00121605 0.00899959 29.9843)
(-0.00696239 0.0103922 29.9842)
(-0.0151695 0.0121433 29.9841)
(-0.0193604 0.0149021 29.9838)
(-0.0183758 0.0183933 29.9835)
(-0.012572 0.0214288 29.9829)
(-0.00416084 0.0229822 29.9847)
(0.00439561 0.0264222 29.9855)
(0.0125163 0.0245485 29.9835)
(0.0179387 0.0206279 29.9841)
(0.0192709 0.0165089 29.9841)
(0.015642 0.0130695 29.9843)
(0.00836129 0.0107523 29.9844)
(0.000774334 0.00953719 29.9844)
(-0.00678232 0.0110392 29.9844)
(-0.0119806 0.0141442 29.9844)
(-0.0138565 0.0182678 29.9845)
(-0.0115769 0.0223775 29.9845)
(-0.00637572 0.0252028 29.9846)
(-0.000176284 0.0264512 29.9847)
(0.00593266 0.0254726 29.9847)
(0.0111888 0.0230126 29.9846)
(0.0135049 0.0191565 29.9846)
(0.0120332 0.0150349 29.9845)
(0.00758437 0.0118666 29.9846)
(0.000978534 0.0102687 29.9845)
(-0.00574427 0.011012 29.9845)
(-0.0123661 0.0128309 29.9843)
(-0.0157058 0.0157902 29.984)
(-0.0148441 0.0194042 29.9838)
(-0.0106323 0.0227264 29.9835)
(-0.00352808 0.0243402 29.9849)
(0.00380138 0.0221352 29.9856)
(0.0105121 0.0202886 29.984)
(0.0148174 0.0165633 29.9843)
(0.0158518 0.0131836 29.9843)
(0.012977 0.0105489 29.9846)
(0.00749021 0.00913523 29.9848)
(0.00157397 0.00941165 29.9846)
(-0.0035821 0.0122341 29.9846)
(-0.00721024 0.016783 29.9846)
(-0.00841849 0.0222524 29.9846)
(-0.00710484 0.0274749 29.9847)
(-0.0038981 0.0310939 29.9847)
(-4.40036e-05 0.0325947 29.9847)
(0.0037826 0.0312734 29.9847)
(0.00699865 0.0279899 29.9847)
(0.00820462 0.0229806 29.9847)
(0.00720256 0.0175777 29.9847)
(0.0041358 0.0129937 29.9848)
(-0.000140555 0.0100451 29.9848)
(-0.00539606 0.00931017 29.9849)
(-0.0101769 0.010254 29.9847)
(-0.0127228 0.012424 29.9843)
(-0.0120392 0.0151969 29.9841)
(-0.00882023 0.0183534 29.984)
(-0.00298673 0.0200332 29.9852)
(0.00347242 0.0130767 29.9855)
(0.00892999 0.0110412 29.9842)
(0.012683 0.00853098 29.9842)
(0.0135305 0.00672143 29.9845)
(0.0116541 0.00595697 29.9848)
(0.00788135 0.00619829 29.985)
(0.00382333 0.00829564 29.9848)
(0.00108272 0.0126884 29.985)
(-0.00119537 0.0182714 29.9849)
(-0.0021567 0.0244937 29.9849)
(-0.00202443 0.0302396 29.9849)
(-0.000943563 0.0342887 29.9848)
(6.34512e-05 0.0358945 29.9847)
(0.00106901 0.0343542 29.9848)
(0.00208402 0.0304373 29.9849)
(0.00210931 0.0248377 29.985)
(0.00119882 0.0187277 29.9851)
(-0.000561872 0.013131 29.9851)
(-0.00278547 0.0086072 29.985)
(-0.00600271 0.00604494 29.9851)
(-0.00924013 0.00541857 29.9849)
(-0.0109275 0.00573606 29.9845)
(-0.0103126 0.00691078 29.9842)
(-0.00739459 0.00871787 29.9842)
(-0.00271643 0.0106255 29.9851)
(0.00379259 0.00212196 29.9849)
(0.00738052 0.000978082 29.9844)
(0.0107748 0.000522605 29.9842)
(0.0121405 0.000471712 29.9845)
(0.011748 0.00119324 29.9847)
(0.00991211 0.00322522 29.9849)
(0.00801034 0.00737309 29.985)
(0.00649319 0.0128801 29.985)
(0.0052423 0.0191553 29.985)
(0.00421379 0.0255482 29.985)
(0.00297269 0.0311626 29.9849)
(0.00185492 0.0350903 29.9849)
(0.000112484 0.0364813 29.9848)
(-0.00168989 0.0350429 29.9848)
(-0.00288607 0.0310589 29.9849)
(-0.00414804 0.0254662 29.985)
(-0.00510565 0.0191443 29.9851)
(-0.00614571 0.012864 29.9852)
(-0.00721055 0.00724121 29.9851)
(-0.00860238 0.00282417 29.985)
(-0.010022 0.000111311 29.9848)
(-0.0102394 -0.00104254 29.9845)
(-0.00895887 -0.00130134 29.9843)
(-0.00612679 -0.00109986 29.9844)
(-0.00381453 -0.000469051 29.9846)
(0.00571011 -0.00776182 29.9848)
(0.00646508 -0.00841326 29.9848)
(0.0108415 -0.00768237 29.9846)
(0.013335 -0.00603102 29.9845)
(0.0143695 -0.003039 29.9847)
(0.0141073 0.00144351 29.985)
(0.0134509 0.00675631 29.985)
(0.0127138 0.0129603 29.9851)
(0.0117757 0.0194862 29.985)
(0.0101862 0.0256296 29.985)
(0.00755012 0.0305429 29.9849)
(0.00407279 0.033546 29.9848)
(9.23412e-05 0.0345814 29.9848)
(-0.00405563 0.0334344 29.9848)
(-0.00754274 0.0302128 29.9849)
(-0.010124 0.0251762 29.985)
(-0.0116245 0.0190063 29.9851)
(-0.0124007 0.0124954 29.9852)
(-0.01285 0.00622754 29.9852)
(-0.0131625 0.000561622 29.9851)
(-0.0130323 -0.00415305 29.9848)
(-0.0119029 -0.00766479 29.9846)
(-0.00942996 -0.00976706 29.9846)
(-0.00550592 -0.0105684 29.9849)
(-0.00627798 -0.0109785 29.9848)
(0.00756011 -0.0160149 29.9849)
(0.00614534 -0.0145635 29.985)
(0.0123124 -0.0134671 29.9847)
(0.016147 -0.0103882 29.9845)
(0.0187318 -0.00588731 29.9846)
(0.0195879 -0.000129266 29.9849)
(0.0196683 0.00620278 29.985)
(0.019192 0.0126531 29.985)
(0.0179609 0.0188079 29.9849)
(0.015398 0.0240609 29.9848)
(0.0111291 0.0277284 29.9848)
(0.00566123 0.0297541 29.9848)
(3.05272e-05 0.0305864 29.9848)
(-0.00586888 0.0296167 29.9848)
(-0.0112599 0.0272823 29.9848)
(-0.0154046 0.0233924 29.9849)
(-0.0178512 0.0180114 29.985)
(-0.0189181 0.0117774 29.9851)
(-0.0191509 0.00526158 29.9851)
(-0.0188165 -0.00106407 29.9851)
(-0.0176932 -0.00715486 29.9848)
(-0.015162 -0.0120691 29.9846)
(-0.0113436 -0.0155385 29.9848)
(-0.00536771 -0.0168273 29.9852)
(-0.00855933 -0.0184863 29.985)
(0.00896433 -0.0180866 29.9849)
(0.00705939 -0.016577 29.9851)
(0.01484 -0.0153604 29.9848)
(0.0200435 -0.0117829 29.9844)
(0.0239237 -0.00669502 29.9846)
(0.0256245 -0.000734066 29.9848)
(0.025965 0.00543703 29.9848)
(0.0252811 0.0113481 29.9848)
(0.0232161 0.0164637 29.9847)
(0.0192242 0.0202571 29.9846)
(0.0136745 0.022824 29.9847)
(0.00684451 0.0241571 29.9848)
(-2.65022e-05 0.0247188 29.9847)
(-0.00729717 0.0240362 29.9848)
(-0.013964 0.0223858 29.9848)
(-0.0193892 0.019581 29.9848)
(-0.0232291 0.0156108 29.9849)
(-0.0250914 0.0103374 29.985)
(-0.0254829 0.00433773 29.9851)
(-0.0249725 -0.00192451 29.985)
(-0.0231882 -0.00808057 29.9848)
(-0.0193948 -0.013469 29.9846)
(-0.0142108 -0.0174123 29.985)
(-0.00642587 -0.0188204 29.9854)
(-0.0100749 -0.0202078 29.9853)
(0.00901467 -0.0148763 29.9852)
(0.00833722 -0.0138533 29.9853)
(0.0175073 -0.0127738 29.9849)
(0.0238082 -0.00961275 29.9844)
(0.0287792 -0.00553645 29.9845)
(0.031122 -0.000737642 29.9847)
(0.031446 0.00418294 29.9847)
(0.0301602 0.00866763 29.9846)
(0.0269271 0.0122097 29.9846)
(0.0218553 0.0147212 29.9846)
(0.015376 0.0163384 29.9847)
(0.00758522 0.0170585 29.9848)
(-6.43616e-05 0.0173767 29.9847)
(-0.00823924 0.01697 29.9848)
(-0.015824 0.0159889 29.9848)
(-0.0221829 0.0141345 29.9848)
(-0.0270945 0.0114544 29.9848)
(-0.0301101 0.00776992 29.9849)
(-0.0310826 0.00313225 29.9849)
(-0.0306159 -0.00187292 29.9849)
(-0.0282834 -0.00682668 29.9847)
(-0.023357 -0.0110918 29.9846)
(-0.0170121 -0.0145881 29.9852)
(-0.00762725 -0.0158605 29.9856)
(-0.0101817 -0.0163129 29.9856)
(0.00849299 -0.00788569 29.9855)
(0.00953716 -0.00712104 29.9853)
(0.0193962 -0.00661758 29.985)
(0.0261812 -0.00482034 29.9844)
(0.0319846 -0.00265925 29.9845)
(0.034967 3.44162e-05 29.9846)
(0.0352833 0.00269467 29.9845)
(0.033218 0.00487435 29.9845)
(0.0291413 0.00657867 29.9845)
(0.023376 0.00783949 29.9846)
(0.0162624 0.00857842 29.9847)
(0.00792887 0.00887429 29.9847)
(-8.29248e-05 0.00900827 29.9847)
(-0.00869671 0.00879868 29.9848)
(-0.0168006 0.00834458 29.9848)
(-0.0238148 0.00742248 29.9848)
(-0.0293987 0.00603577 29.9848)
(-0.033294 0.00427014 29.9848)
(-0.0350677 0.00195761 29.9848)
(-0.0345441 -0.000784479 29.9849)
(-0.0316002 -0.00354007 29.9847)
(-0.0258773 -0.00577047 29.9847)
(-0.0190965 -0.00785021 29.9853)
(-0.0091438 -0.00856682 29.9858)
(-0.00897261 -0.00854693 29.986)
(0.00835509 0.00055995 29.9857)
(0.0100641 0.000843056 29.9855)
(0.020267 0.000813292 29.985)
(0.0272461 0.000666414 29.9844)
(0.0334043 0.000607116 29.9844)
(0.0365168 0.000549469 29.9844)
(0.0366711 0.00050589 29.9844)
(0.0342869 0.000440091 29.9845)
(0.029954 0.000405094 29.9845)
(0.023878 0.000373597 29.9845)
(0.0165035 0.000327684 29.9846)
(0.00796766 0.000314043 29.9846)
(-0.000155232 0.000272767 29.9846)
(-0.00890505 0.000198768 29.9847)
(-0.0171949 0.000178075 29.9847)
(-0.0244643 0.000149138 29.9848)
(-0.030318 0.000118159 29.9848)
(-0.0343829 9.71837e-05 29.9848)
(-0.0364591 0.000120435 29.9847)
(-0.0360903 0.000164976 29.9847)
(-0.0329966 0.000257388 29.9847)
(-0.0269749 0.00032395 29.9847)
(-0.0199585 0.000327991 29.9854)
(-0.00972196 0.000357578 29.986)
(-0.00891623 0.000499293 29.9862)
(0.00854875 0.0091051 29.9854)
(0.00944677 0.00901737 29.9852)
(0.0193214 0.00836046 29.9848)
(0.0261595 0.00625767 29.9843)
(0.0320402 0.00396621 29.9844)
(0.0350066 0.00116247 29.9845)
(0.0352651 -0.00160274 29.9844)
(0.0331258 -0.00379714 29.9844)
(0.0289922 -0.00548964 29.9844)
(0.0231873 -0.00673185 29.9845)
(0.0160623 -0.00748158 29.9846)
(0.00775184 -0.00776122 29.9846)
(-0.000206967 -0.0079889 29.9846)
(-0.00878474 -0.00795823 29.9848)
(-0.0168744 -0.0076115 29.9848)
(-0.0238759 -0.00684316 29.9848)
(-0.0294298 -0.00560824 29.9848)
(-0.0332744 -0.00394843 29.9848)
(-0.0349849 -0.00163107 29.9848)
(-0.0344916 0.00125861 29.9848)
(-0.031581 0.004172 29.9847)
(-0.0258385 0.00654881 29.9846)
(-0.0190404 0.00865641 29.9852)
(-0.00902568 0.00939611 29.9857)
(-0.00908882 0.00984502 29.9859)
(0.00924746 0.0160274 29.985)
(0.00808654 0.0154834 29.9851)
(0.0172104 0.0143134 29.9847)
(0.0235164 0.0109607 29.9842)
(0.0285857 0.00675393 29.9843)
(0.0310441 0.00186534 29.9845)
(0.0314405 -0.00307485 29.9845)
(0.0301765 -0.0075634 29.9845)
(0.0269729 -0.0111344 29.9844)
(0.0218866 -0.0136786 29.9844)
(0.0153463 -0.0153238 29.9845)
(0.00746942 -0.0160538 29.9846)
(-0.000235895 -0.0165353 29.9846)
(-0.00850365 -0.0163182 29.9847)
(-0.0161515 -0.0154348 29.9847)
(-0.0225268 -0.0137149 29.9848)
(-0.027374 -0.0111281 29.9848)
(-0.0302248 -0.00749045 29.9849)
(-0.031019 -0.00287787 29.9849)
(-0.0303988 0.00217667 29.9848)
(-0.0279708 0.00730236 29.9846)
(-0.0230631 0.0117131 29.9845)
(-0.0168038 0.0151411 29.9851)
(-0.00753293 0.0163376 29.9855)
(-0.0100547 0.0175243 29.9855)
(0.00922373 0.0190105 29.9845)
(0.00682128 0.0177316 29.9848)
(0.014426 0.016404 29.9845)
(0.0196034 0.0128591 29.9841)
(0.0235785 0.00777487 29.9843)
(0.0254236 0.00176619 29.9845)
(0.0259457 -0.00441114 29.9846)
(0.0253342 -0.0103135 29.9845)
(0.0233039 -0.0154395 29.9844)
(0.0193167 -0.0192609 29.9843)
(0.0136916 -0.0218369 29.9844)
(0.00668728 -0.023153 29.9845)
(-0.000319878 -0.0239073 29.9845)
(-0.00778762 -0.0234459 29.9846)
(-0.0145252 -0.0219287 29.9846)
(-0.0199323 -0.019287 29.9847)
(-0.023647 -0.0154178 29.9848)
(-0.0252484 -0.0101609 29.9849)
(-0.0253549 -0.00411135 29.9849)
(-0.0246201 0.00227796 29.9849)
(-0.0227475 0.00856961 29.9846)
(-0.0189901 0.0139701 29.9844)
(-0.0139232 0.017674 29.9848)
(-0.0063644 0.0190227 29.9852)
(-0.00983444 0.0210999 29.985)
(0.00782125 0.0162528 29.9845)
(0.00598822 0.0148353 29.9847)
(0.0120943 0.0137611 29.9844)
(0.0158319 0.0107572 29.9841)
(0.0183979 0.00639866 29.9843)
(0.0193896 0.00066464 29.9845)
(0.0196868 -0.00552027 29.9846)
(0.0193072 -0.011929 29.9846)
(0.0181148 -0.0180158 29.9845)
(0.0154861 -0.023213 29.9844)
(0.0111322 -0.0269188 29.9844)
(0.00540855 -0.0289436 29.9844)
(-0.000393839 -0.0299819 29.9845)
(-0.00655477 -0.0292217 29.9846)
(-0.0120172 -0.0270077 29.9846)
(-0.016121 -0.0232886 29.9847)
(-0.0183517 -0.0180097 29.9849)
(-0.0190634 -0.01179 29.985)
(-0.0189228 -0.00522935 29.985)
(-0.0183626 0.00123755 29.9849)
(-0.0172499 0.00728488 29.9845)
(-0.0148758 0.0120462 29.9844)
(-0.0112912 0.0152504 29.9847)
(-0.00550392 0.0163753 29.985)
(-0.00818374 0.0186151 29.9849)
(0.00612797 0.00710753 29.9844)
(0.00623489 0.00758999 29.9844)
(0.0105369 0.00689393 29.9841)
(0.0131032 0.00536383 29.9841)
(0.0143039 0.00253438 29.9843)
(0.0140706 -0.00151529 29.9846)
(0.013532 -0.0067773 29.9846)
(0.0129252 -0.0128351 29.9846)
(0.0120203 -0.0192213 29.9846)
(0.0103456 -0.0252672 29.9845)
(0.00752281 -0.0301427 29.9845)
(0.0036732 -0.0330901 29.9844)
(-0.000463986 -0.034334 29.9845)
(-0.00487855 -0.033322 29.9846)
(-0.00848429 -0.0302474 29.9847)
(-0.0109839 -0.0253541 29.9848)
(-0.0121737 -0.0192567 29.985)
(-0.0125167 -0.0127691 29.985)
(-0.0126142 -0.00652725 29.9849)
(-0.012744 -0.00104552 29.9849)
(-0.0126712 0.00359334 29.9845)
(-0.0117585 0.00681237 29.9844)
(-0.00950805 0.00857593 29.9845)
(-0.00576988 0.00928321 29.9847)
(-0.00594399 0.00952681 29.9846)
(0.00382123 -0.00340653 29.9845)
(0.00715662 -0.0024512 29.9839)
(0.0105294 -0.00208359 29.9838)
(0.0119971 -0.00192553 29.9841)
(0.011748 -0.00247247 29.9844)
(0.0100164 -0.00441472 29.9845)
(0.00821292 -0.00817989 29.9846)
(0.00685928 -0.0134996 29.9846)
(0.00559998 -0.0196717 29.9846)
(0.00442491 -0.0259414 29.9845)
(0.00300983 -0.0314443 29.9845)
(0.00144652 -0.0352666 29.9845)
(-0.000547352 -0.0367491 29.9844)
(-0.00269957 -0.0354065 29.9846)
(-0.00399403 -0.0315386 29.9847)
(-0.00506744 -0.026039 29.9849)
(-0.00572557 -0.0197391 29.9849)
(-0.00628294 -0.0135222 29.9849)
(-0.00711328 -0.00804535 29.9849)
(-0.0083037 -0.00382644 29.9847)
(-0.00980422 -0.00156186 29.9846)
(-0.0102129 -0.000768412 29.9843)
(-0.00913526 -0.000736997 29.9841)
(-0.00636769 -0.00106895 29.9842)
(-0.00371447 -0.00178161 29.9845)
(0.00344809 -0.0155723 29.9851)
(0.0085942 -0.0136449 29.9838)
(0.0124041 -0.0113253 29.9839)
(0.0135247 -0.00952982 29.9842)
(0.0119611 -0.00857895 29.9846)
(0.00859218 -0.00863336 29.9847)
(0.00443352 -0.0100564 29.9845)
(0.0015746 -0.0141317 29.9845)
(-0.000591714 -0.0194748 29.9845)
(-0.00175535 -0.0255098 29.9845)
(-0.00190809 -0.031118 29.9845)
(-0.00136646 -0.0350924 29.9845)
(-0.000544365 -0.0365915 29.9845)
(-7.18591e-05 -0.0350279 29.9846)
(0.000948943 -0.031204 29.9847)
(0.00109129 -0.0256883 29.9848)
(0.00058728 -0.019648 29.9849)
(-0.000920932 -0.0141635 29.9849)
(-0.00299572 -0.00999008 29.9848)
(-0.00621268 -0.00791089 29.9849)
(-0.0095234 -0.00758198 29.9847)
(-0.0114029 -0.00837456 29.9843)
(-0.0108045 -0.0100736 29.984)
(-0.00784121 -0.0123299 29.9841)
(-0.00287466 -0.014366 29.9851)
(0.00377591 -0.025044 29.9856)
(0.0103376 -0.0232671 29.9838)
(0.0146918 -0.0197062 29.984)
(0.0160381 -0.0164166 29.9842)
(0.013597 -0.0137008 29.9844)
(0.0085441 -0.0120694 29.9846)
(0.00247567 -0.0118661 29.9843)
(-0.00247597 -0.0144517 29.9843)
(-0.00634029 -0.0185581 29.9843)
(-0.00776108 -0.0237317 29.9843)
(-0.00678975 -0.0287117 29.9843)
(-0.00408907 -0.0321606 29.9844)
(-0.000624024 -0.033452 29.9845)
(0.00268579 -0.0319842 29.9845)
(0.00574946 -0.0288114 29.9846)
(0.00704651 -0.0239537 29.9846)
(0.0063371 -0.0187591 29.9847)
(0.00351929 -0.0143883 29.9847)
(-0.000951152 -0.0118178 29.9847)
(-0.00595273 -0.0117104 29.9848)
(-0.0109027 -0.0130221 29.9845)
(-0.0136872 -0.0156648 29.9842)
(-0.0130906 -0.0189486 29.9841)
(-0.00962619 -0.0225176 29.984)
(-0.00311707 -0.0244333 29.9853)
(0.00439267 -0.0294782 29.9856)
(0.0124781 -0.0277155 29.9832)
(0.0180064 -0.0237692 29.9838)
(0.0195676 -0.0197054 29.984)
(0.0163033 -0.0161815 29.9842)
(0.00947315 -0.0136675 29.9842)
(0.0019146 -0.0121764 29.9841)
(-0.00533492 -0.0133005 29.9841)
(-0.010707 -0.0160338 29.9841)
(-0.0128231 -0.0197765 29.9841)
(-0.010951 -0.0236496 29.9842)
(-0.00629663 -0.0262584 29.9843)
(-0.000668558 -0.0272767 29.9844)
(0.00490458 -0.026153 29.9845)
(0.00982384 -0.0237805 29.9845)
(0.0121163 -0.0200332 29.9845)
(0.0108068 -0.0161256 29.9845)
(0.00645475 -0.0133397 29.9845)
(-0.000223395 -0.0121643 29.9845)
(-0.00673405 -0.013589 29.9844)
(-0.0135069 -0.0158986 29.9843)
(-0.0170421 -0.0192911 29.9841)
(-0.0162083 -0.0231875 29.984)
(-0.0117129 -0.0270367 29.9836)
(-0.00368316 -0.0288512 29.9852)
(0.0051063 -0.0271448 29.9852)
(0.0147013 -0.025533 29.9826)
(0.0218655 -0.0219699 29.9832)
(0.0236414 -0.0181274 29.9838)
(0.0195829 -0.0148275 29.984)
(0.0112423 -0.0125592 29.9839)
(0.00206626 -0.0107048 29.9837)
(-0.00688046 -0.0107327 29.9841)
(-0.0136995 -0.012283 29.9843)
(-0.0163242 -0.0145745 29.9845)
(-0.0142484 -0.0173194 29.9847)
(-0.00833777 -0.0193878 29.9848)
(-0.000811712 -0.0202858 29.9851)
(0.00673038 -0.0193605 29.985)
(0.0129793 -0.0174611 29.985)
(0.0156648 -0.0148231 29.9849)
(0.0138503 -0.0122868 29.9847)
(0.00806838 -0.0108497 29.9846)
(-0.000287751 -0.0107924 29.9842)
(-0.0085875 -0.0127256 29.9842)
(-0.016901 -0.0148702 29.9842)
(-0.0211073 -0.0179919 29.984)
(-0.0198247 -0.0215187 29.9837)
(-0.0137205 -0.0248801 29.9831)
(-0.00432663 -0.0265834 29.9849)
(0.00725842 -0.020243 29.985)
(0.0179095 -0.0179695 29.9828)
(0.0254445 -0.0147613 29.9826)
(0.027595 -0.0125403 29.9832)
(0.0231369 -0.010418 29.9838)
(0.0135538 -0.00869848 29.9838)
(0.00243571 -0.0072754 29.9839)
(-0.0076057 -0.00636539 29.9843)
(-0.0147648 -0.00610847 29.9847)
(-0.0176259 -0.00689476 29.9848)
(-0.0153802 -0.00813629 29.9851)
(-0.00895046 -0.00948068 29.9852)
(-0.000826192 -0.0100694 29.9855)
(0.00724137 -0.00952222 29.9854)
(0.0140662 -0.00830215 29.9853)
(0.0168841 -0.00704798 29.9852)
(0.0149512 -0.00614179 29.9851)
(0.00880849 -0.0064985 29.9848)
(-0.000758221 -0.00741836 29.9844)
(-0.0111442 -0.00896663 29.9842)
(-0.0206724 -0.0105704 29.984)
(-0.0250681 -0.0125977 29.9835)
(-0.0231778 -0.0145417 29.983)
(-0.0166498 -0.0176163 29.9834)
(-0.00616651 -0.0200276 29.985)
(0.00859629 -0.00865248 29.9885)
(0.0201851 -0.00730866 29.985)
(0.0270626 -0.00514318 29.9852)
(0.0293526 -0.00443508 29.9857)
(0.0248855 -0.00382089 29.9856)
(0.0154525 -0.00348072 29.9851)
(0.00341695 -0.00382126 29.9845)
(-0.00706383 -0.00605581 29.9843)
(-0.0162098 -0.00775716 29.9845)
(-0.0189658 -0.00920367 29.9845)
(-0.0159942 -0.00926448 29.985)
(-0.00907127 -0.00859005 29.9854)
(-0.000538804 -0.00837426 29.9858)
(0.0080876 -0.00852737 29.9856)
(0.0151969 -0.00902683 29.9852)
(0.0185154 -0.00893027 29.9849)
(0.0164705 -0.00750849 29.9849)
(0.00817632 -0.00562017 29.9849)
(-0.00190725 -0.00378848 29.9849)
(-0.0131699 -0.00347761 29.9855)
(-0.0225322 -0.00383485 29.9856)
(-0.0269534 -0.00444477 29.9855)
(-0.0249901 -0.00500609 29.985)
(-0.0191466 -0.00704065 29.9852)
(-0.00755344 -0.00833481 29.9885)
(0.053192 0.051097 29.9151)
(0.0181814 0.01008 29.9289)
(0.0194555 0.0134872 29.9276)
(0.0151567 0.0205516 29.9253)
(0.00789432 0.0225332 29.9232)
(-0.00261429 0.020682 29.9226)
(-0.0134169 0.0162134 29.9221)
(-0.0228027 0.0124445 29.9229)
(-0.0292341 0.0109221 29.9236)
(-0.0301477 0.0101726 29.9246)
(-0.0252158 0.00840756 29.9255)
(-0.0148343 0.00590949 29.9259)
(-0.000962971 0.00444924 29.926)
(0.0129094 0.00565822 29.9262)
(0.023746 0.00790116 29.9261)
(0.0292205 0.0100345 29.9256)
(0.0288682 0.0110917 29.9246)
(0.0235093 0.01273 29.9241)
(0.0146256 0.0160948 29.9233)
(0.00541582 0.020633 29.9235)
(-0.00468957 0.0222441 29.9238)
(-0.012156 0.0199059 29.9251)
(-0.0167688 0.0130261 29.9267)
(-0.0168004 0.00984321 29.9277)
(-0.0518143 0.0503779 29.9142)
(0.010618 0.017915 29.9289)
(0.0161727 0.0154486 29.9272)
(0.0217325 0.0140213 29.9261)
(0.0244319 0.0106752 29.9254)
(0.0205228 0.00736439 29.9246)
(0.0116363 0.00549264 29.9241)
(0.00195868 0.00484323 29.9243)
(-0.00722581 0.0048816 29.9249)
(-0.0137687 0.00499416 29.9257)
(-0.0158234 0.00622957 29.9267)
(-0.0133104 0.00689525 29.9279)
(-0.00733501 0.00726633 29.929)
(-0.000174378 0.00744443 29.93)
(0.00664995 0.00732566 29.9295)
(0.0126825 0.00709968 29.9287)
(0.0152395 0.00639133 29.9277)
(0.0136023 0.0051081 29.9268)
(0.00794438 0.00498417 29.9259)
(-0.000452622 0.00495734 29.9252)
(-0.00878872 0.00557338 29.9247)
(-0.0170564 0.00720929 29.9248)
(-0.0206457 0.0105624 29.9251)
(-0.0187457 0.0133719 29.9254)
(-0.0143774 0.0144753 29.9263)
(-0.00960672 0.0168999 29.9278)
(0.0136891 0.0184271 29.9278)
(0.0150521 0.019653 29.9262)
(0.0202536 0.0182835 29.9262)
(0.0207082 0.0128987 29.9255)
(0.0164724 0.00836419 29.9243)
(0.00847237 0.006352 29.9239)
(0.000283669 0.00585106 29.9239)
(-0.00752308 0.00698714 29.9243)
(-0.0131083 0.00887801 29.9251)
(-0.0149829 0.0118466 29.9261)
(-0.0123494 0.0146463 29.9272)
(-0.00684566 0.0166522 29.9282)
(-0.000196552 0.0176797 29.9288)
(0.0062519 0.0168728 29.9285)
(0.0118161 0.0150913 29.9279)
(0.0144337 0.0123425 29.927)
(0.0129095 0.00931807 29.926)
(0.00812933 0.00728762 29.9252)
(0.00111285 0.00610968 29.9248)
(-0.00598675 0.00659293 29.9246)
(-0.0133937 0.00821852 29.9247)
(-0.017413 0.0124339 29.9253)
(-0.0173716 0.0174371 29.9255)
(-0.0133291 0.0188378 29.9254)
(-0.0128502 0.0169955 29.9267)
(0.0195023 0.0146548 29.9263)
(0.0126251 0.0212625 29.926)
(0.0152871 0.0185314 29.926)
(0.0146076 0.0126049 29.9248)
(0.0109379 0.00801692 29.9238)
(0.00432869 0.00622241 29.9236)
(-0.0020099 0.00601717 29.9236)
(-0.00808222 0.00800483 29.9238)
(-0.0122986 0.0114033 29.9242)
(-0.0136614 0.0155809 29.9249)
(-0.011287 0.0194797 29.9255)
(-0.00630252 0.0221207 29.926)
(-0.00024317 0.0233277 29.9264)
(0.00572736 0.0223087 29.9263)
(0.0108173 0.0199213 29.926)
(0.0131534 0.0160842 29.9255)
(0.012056 0.0118751 29.925)
(0.00855484 0.00833391 29.9246)
(0.00321226 0.00633264 29.9244)
(-0.00233581 0.00639295 29.9242)
(-0.00842895 0.00778434 29.9241)
(-0.0118242 0.0118795 29.9245)
(-0.0123689 0.017463 29.9253)
(-0.0105809 0.0206802 29.9251)
(-0.0198353 0.0123877 29.925)
(0.0229785 0.00621758 29.9249)
(0.00855614 0.0185845 29.9253)
(0.0104114 0.0146982 29.9253)
(0.0100026 0.0092806 29.9242)
(0.00721666 0.00556891 29.9236)
(0.00235783 0.00426192 29.9236)
(-0.00242318 0.00521888 29.9234)
(-0.00648348 0.00849096 29.9235)
(-0.00920426 0.01307 29.9237)
(-0.00986413 0.0183226 29.9241)
(-0.00810451 0.023289 29.9246)
(-0.00451581 0.0267254 29.9249)
(-0.000187947 0.0281084 29.9251)
(0.00408219 0.0268499 29.9251)
(0.00773526 0.023653 29.925)
(0.00942842 0.018753 29.9247)
(0.00892424 0.0134477 29.9244)
(0.00679015 0.00874009 29.9242)
(0.00344266 0.00539006 29.9241)
(-0.000765709 0.00416774 29.9242)
(-0.00516585 0.0052124 29.9239)
(-0.00772272 0.00846741 29.9241)
(-0.0081479 0.0134323 29.9246)
(-0.0072096 0.0170913 29.9248)
(-0.0223155 0.00479892 29.9237)
(0.02144 -0.00352395 29.9245)
(0.00674212 0.0105612 29.9252)
(0.00827268 0.00748031 29.925)
(0.00809533 0.00335983 29.9243)
(0.00581582 0.00139033 29.9239)
(0.00256853 0.00166511 29.9237)
(-0.000522362 0.00428638 29.9234)
(-0.00252609 0.00885854 29.9236)
(-0.00412489 0.0143181 29.9237)
(-0.00458115 0.0201818 29.9238)
(-0.00380058 0.0255692 29.9239)
(-0.0021004 0.0294635 29.924)
(-0.000137636 0.0310179 29.9241)
(0.0017423 0.0295001 29.9242)
(0.00345235 0.0256753 29.9242)
(0.00420158 0.0202948 29.9243)
(0.00385603 0.0144152 29.9243)
(0.00279966 0.00886938 29.9243)
(0.00119435 0.00417869 29.9241)
(-0.00121394 0.00123332 29.9242)
(-0.0041291 0.000781996 29.9242)
(-0.00634222 0.00233075 29.9242)
(-0.00653904 0.00595928 29.9245)
(-0.00555703 0.0087447 29.9247)
(-0.0207384 -0.0054682 29.9234)
(0.0175465 -0.0130344 29.9239)
(0.00584496 0.00221143 29.9255)
(0.00738389 0.000481895 29.925)
(0.00759958 -0.00194982 29.9243)
(0.00661418 -0.00247315 29.9238)
(0.00510275 -0.000512167 29.9236)
(0.00370603 0.00364515 29.9234)
(0.00268578 0.00911485 29.9233)
(0.00173056 0.0151222 29.9232)
(0.00140721 0.0210734 29.9231)
(0.000710372 0.026331 29.923)
(0.000548275 0.0300508 29.9229)
(-0.000144372 0.0314211 29.9229)
(-0.000919487 0.0300394 29.923)
(-0.00112256 0.026232 29.9232)
(-0.00171411 0.0208807 29.9235)
(-0.00189016 0.0148721 29.9238)
(-0.00255432 0.00878409 29.9239)
(-0.00317748 0.00320053 29.9241)
(-0.00418975 -0.00117397 29.9241)
(-0.0053863 -0.0034667 29.9241)
(-0.00631324 -0.00325793 29.9243)
(-0.00608256 -0.00117299 29.9247)
(-0.00495161 0.000384242 29.9252)
(-0.0161576 -0.0146956 29.9232)
(0.0137868 -0.0212589 29.9242)
(0.00557683 -0.00593359 29.926)
(0.00830577 -0.00634485 29.9253)
(0.0092922 -0.00715688 29.9245)
(0.00965396 -0.00567036 29.9238)
(0.00956905 -0.00173772 29.9237)
(0.00916801 0.0033788 29.9232)
(0.00871596 0.00935588 29.923)
(0.0081088 0.0155768 29.9226)
(0.00706744 0.0213675 29.9222)
(0.00514941 0.0260047 29.922)
(0.00266648 0.0289131 29.9217)
(-0.000206592 0.0299249 29.9216)
(-0.00328478 0.0289388 29.9218)
(-0.00565492 0.0257467 29.9222)
(-0.00739082 0.0208719 29.9226)
(-0.00824846 0.0149706 29.9232)
(-0.00862381 0.0086983 29.9236)
(-0.0087703 0.00261802 29.9239)
(-0.00890415 -0.00279809 29.9243)
(-0.00879638 -0.00680425 29.9243)
(-0.00837954 -0.00862815 29.9246)
(-0.00730078 -0.00826498 29.9252)
(-0.00500855 -0.00811811 29.9259)
(-0.0128252 -0.0237392 29.924)
(0.0123964 -0.0269845 29.9244)
(0.00558323 -0.0115974 29.9265)
(0.00999545 -0.0111223 29.9257)
(0.0125215 -0.0106281 29.9246)
(0.0141145 -0.00772336 29.9238)
(0.0149803 -0.00274225 29.9235)
(0.0151459 0.00306667 29.9229)
(0.0149188 0.0093277 29.9224)
(0.0140691 0.0152523 29.9218)
(0.0121413 0.0203635 29.9212)
(0.00873701 0.0239898 29.9208)
(0.00426354 0.0258853 29.9206)
(-0.000299626 0.0267027 29.9205)
(-0.00515369 0.0259197 29.9207)
(-0.00938426 0.0235892 29.921)
(-0.0125513 0.0196732 29.9216)
(-0.0142863 0.0144077 29.9224)
(-0.0149003 0.00837444 29.9232)
(-0.014876 0.00202496 29.9238)
(-0.0144899 -0.0037465 29.9243)
(-0.0135687 -0.00888785 29.9245)
(-0.0119983 -0.0120985 29.925)
(-0.00939232 -0.0130444 29.926)
(-0.00516272 -0.0137793 29.9268)
(-0.0111661 -0.0291188 29.9246)
(0.0111737 -0.0274916 29.925)
(0.00677859 -0.0131692 29.9271)
(0.012824 -0.012502 29.9263)
(0.0165718 -0.0114955 29.9249)
(0.0192353 -0.00793073 29.9239)
(0.0207141 -0.00282687 29.9233)
(0.0210498 0.0029793 29.9225)
(0.0206877 0.00860434 29.9218)
(0.0191704 0.0135859 29.9209)
(0.0159419 0.0173833 29.9202)
(0.0112324 0.0199438 29.9198)
(0.00542198 0.0212131 29.9197)
(-0.00036957 0.0218026 29.9195)
(-0.00654896 0.021225 29.9197)
(-0.0120489 0.0195052 29.9201)
(-0.0165461 0.0166971 29.9207)
(-0.0195498 0.0127167 29.9216)
(-0.0208032 0.00755529 29.9226)
(-0.0208952 0.00184866 29.9235)
(-0.0204076 -0.00406627 29.9243)
(-0.0189507 -0.00934898 29.9248)
(-0.0162969 -0.0131439 29.9256)
(-0.0125042 -0.0145348 29.927)
(-0.00647558 -0.015385 29.9277)
(-0.0100972 -0.0294366 29.9256)
(0.00913702 -0.0224835 29.9253)
(0.00754069 -0.0106946 29.9278)
(0.0154462 -0.00991028 29.927)
(0.0202609 -0.00915915 29.9251)
(0.0239798 -0.00622034 29.9239)
(0.0259085 -0.00206437 29.923)
(0.0262226 0.00243904 29.9221)
(0.0253585 0.00678918 29.9212)
(0.0228474 0.0103029 29.9202)
(0.0185272 0.0127828 29.9195)
(0.0129516 0.0145 29.9191)
(0.00617474 0.0152171 29.9189)
(-0.000449107 0.0155452 29.9187)
(-0.00753861 0.015197 29.919)
(-0.0139778 0.0141018 29.9194)
(-0.019349 0.0121823 29.9201)
(-0.0234453 0.00953833 29.921)
(-0.025668 0.00582927 29.9222)
(-0.0262571 0.00131241 29.9232)
(-0.0258331 -0.00329903 29.9242)
(-0.0239283 -0.00762869 29.925)
(-0.0202331 -0.0107698 29.926)
(-0.0153518 -0.0118722 29.9279)
(-0.00720833 -0.0127837 29.9287)
(-0.00796838 -0.0238964 29.9261)
(0.0070349 -0.0120875 29.9253)
(0.00773595 -0.00508691 29.9283)
(0.0170353 -0.00462991 29.9275)
(0.0225011 -0.00433503 29.9252)
(0.0270419 -0.00276352 29.9238)
(0.0295795 -0.000504419 29.9228)
(0.0298373 0.00196173 29.9217)
(0.0283426 0.00419014 29.9207)
(0.0250269 0.00588885 29.9198)
(0.020104 0.00711044 29.9191)
(0.0139464 0.00792228 29.9186)
(0.0066054 0.00821334 29.9183)
(-0.000466918 0.00831754 29.9181)
(-0.00806773 0.00814158 29.9185)
(-0.0150767 0.00762022 29.919)
(-0.0210609 0.00664758 29.9197)
(-0.0257513 0.00527578 29.9207)
(-0.0288344 0.00343919 29.9218)
(-0.0300641 0.00110035 29.923)
(-0.0296732 -0.00154899 29.9242)
(-0.0271616 -0.00392584 29.9251)
(-0.0226914 -0.00563275 29.9263)
(-0.0172167 -0.00627396 29.9286)
(-0.00745211 -0.00671155 29.9296)
(-0.00569309 -0.0129954 29.9262)
(0.0059507 0.0012731 29.925)
(0.00769341 0.00136555 29.9287)
(0.017788 0.00133107 29.9277)