/*--------------------------------*- C++ -*----------------------------------*\
  =========                 |
  \\      /  F ield         | OpenFOAM: The Open Source CFD Toolbox
   \\    /   O peration     | Website:  https://openfoam.org
    \\  /    A nd           | Version:  12
     \\/     M anipulation  |
\*---------------------------------------------------------------------------*/
FoamFile
{
    format      ascii;
    class       volScalarField;
    location    "3";
    object      p;
}
// * * * * * * * * * * * * * * * * * * * * * * * * * * * * * * * * * * * * * //

dimensions      [0 2 -2 0 0 0 0];

internalField   nonuniform List<scalar> 
94133
(
2188.6816
13317.138
9467.2876
13902.266
17793.386
8895.2272
13538.458
8479.1706
13470.5
9695.0545
13803.663
18352.905
8752.4712
13519.573
10706.6
12397.497
12487.879
12709.17
15725.252
10956.396
12441.87
15950.069
24957.585
5389.8654
-3499.3027
30158.951
5909.1146
-6134.6978
25283.849
5400.0401
-3047.7968
90183.496
-24324.779
-94160.537
263557.05
113672.05
-20790.986
-103529.85
91398.482
-23479.232
-96328.324
346171.71
-140555.69
-436007.62
1404046.1
479062.66
-119769.19
-453920.92
363027.52
-135355.67
-435739.33
1176587.5
-625397.86
-1550543.7
7771204.4
1845386.4
-510958.65
-1578167.9
1221620.5
-596574.86
-1520156.9
2520488.6
-2638893.8
-4594781.8
41219419
4998444.1
-2230186.5
-4623440.4
2588202.9
-2525828.7
-4525890.6
-1380805.9
-9376349.7
-11217757
1.2301787e+08
3407417
-8661803.8
-11089480
-601954.13
-8957008.1
-10995754
-9448603.7
-25365342
-22459954
-21057292
-24693555
-25940696
-22088627
-20848432
-22554865
-21505655
-20659668
-21296671
-47918268
-35245020
-31048014
-4.8410547e+08
-53800624
-34607210
-30558491
-43205346
-33518841
-30375940
-33395397
-47535212
-42000696
-38281626
-1.3301215e+08
-46869570
-40775064
-37624260
-42638807
-39869211
-37421787
-40193416
-46535011
-44574826
-42347904
-54323714
-41786192
-42965453
-41660235
-41819043
-42505572
-41453120
-43108150
-46548201
-45684815
-44376916
-18383295
-40943450
-44091291
-43759311
-42284402
-43879475
-43568990
-44506306
-46539550
-46173077
-45343661
2708278.7
-41003840
-44763846
-44827790
-42732878
-44646849
-44658402
-45193991
-46359854
-46331718
-45774504
13928568
-41222338
-45153680
-45360821
-42965576
-45065091
-45208078
-45508742
-46077551
-46329086
-45941579
18231960
-41492899
-45368234
-45611326
-43062241
-45274477
-45469707
-45617866
-45823495
-46316392
-45989334
21614933
-41633677
-45475405
-45704784
-43012838
-45363456
-45565640
-45612629
-45909817
-46330356
-45998781
20651159
-41554754
-45451011
-45700657
-43007976
-45335916
-45553841
-45605713
-46138626
-46346191
-45957777
17835212
-41306209
-45300936
-45600754
-42933897
-45190681
-45431323
-45552155
-46066357
-46240207
-45826827
21900494
-40692053
-44988780
-45388887
-42510510
-44851630
-45154143
-45292641
-45586353
-45861269
-45633072
142381.62
-40083400
-44417422
-45121147
-41562256
-44114999
-44679187
-44536198
-43963221
-44748567
-45612219
-28847064
-39205343
-43269545
-45234488
-39291984
-42407789
-44148559
-42510348
-37903909
-41113556
-48154241
-1.0378354e+08
-37549224
-40206305
-48930250
-33147490
-37728881
-45216782
-36547392
-8376556
-27810969
-75503421
-5.0320626e+08
-15038821
-28967543
-89191058
-6626575.5
-22193034
-59472764
-16181830
82562208
24403040
-2.8163546e+08
1.0296983e+09
71496758
39635057
-4.7489805e+08
83396514
31608757
-1.0936505e+08
52702429
1.9984521e+08
3.0445591e+08
2.8876434e+08
9.8636274e+08
1.6162446e+08
1.8597069e+08
1.992118e+09
1.8542389e+08
1.6930787e+08
1.3771997e+08
2.8032229e+08
5.6546516e+08
2.7038258e+08
1.7907355e+08
2.004564e+08
2.7967945e+08
2.1574807e+08
1.2723809e+08
1.9608054e+08
3.182553e+08
6.6138663e+08
1.4109667e+08
1.7591866e+08
1.8810789e+08
1.6977892e+08
2.4385608e+08
1.247286e+08
1.6288076e+08
3.7740613e+08
7.0881778e+08
87514186
3.213087e+08
1.9129711e+08
1.3484522e+08
2.3436358e+08
1.3707954e+08
1.4345928e+08
4.2460904e+08
7.3622063e+08
52505731
3.7267672e+08
1.8801053e+08
1.0857095e+08
2.0051697e+08
1.0985956e+08
1.1934678e+08
4.6398989e+08
7.3194506e+08
20731544
3.7072516e+08
1.6835349e+08
76472835
2.3386845e+08
83456108
82514463
5.1357822e+08
7.0537644e+08
-9581813.6
2.5837558e+08
1.3263781e+08
34891413
2.8927027e+08
55934040
20355081
6.765523e+08
6.7165359e+08
-26530293
2.2804661e+08
78768273
-23202182
3.0711553e+08
30945273
-83485245
1.2058891e+09
3.7632926e+08
30129481
2.3880699e+08
-1.2499383e+08
-1.3679638e+08
3.1012443e+08
-1.1278473e+08
-1.9704751e+08
1.6134429e+09
-5.808344e+09
-3.2636518e+08
-2.8680865e+09
-1.1670177e+09
-6.0385635e+08
6.6833253e+08
-3.482168e+08
-3.4031423e+08
-6.521319e+09
-8.4888652e+08
82140107
30719759
1.7325175e+08
24537914
-68461620
1.4038009e+08
93969386
8.6363707e+08
79635018
1.7577109e+08
-1.8522651e+09
1.4834164e+08
-5.3618917e+08
40849445
8.0205924e+09
78761380
7.3477943e+08
94504652
-1.0530919e+08
1.4968648e+08
1.8228501e+08
-1.8072963e+08
2.6151917e+09
-50008556
38724011
84310995
48773580
1.6780905e+08
1.5777615e+08
1.7584268e+08
2.271518e+08
-49265091
43786811
7507908
1.5674989e+08
84426276
3.0099219e+08
1.2565686e+08
-5.7477176e+09
-2.2083391e+09
-1.5855055e+09
-8.1693656e+09
-1.0910703e+10
-2.7969135e+09
-6.5653317e+08
-5.5168158e+08
-3.9750132e+08
-2.0403927e+09
-1.4902825e+09
-9.2264472e+08
1.7969512e+09
-1.2330512e+10
6.5989829e+09
-8500634.7
-19868525
53913761
18680063
-26401056
-54953388
6002906
-73245327
-7651157.9
-1.0192154e+08
-16589003
66306541
6.5358037e+08
60271484
-92049595
-2.028253e+08
-3.9954684e+08
-25921537
-11157718
-8786543.1
1.1600269e+09
60103823
4.5896171e+08
61473868
-1.3597987e+08
-68512416
-3.5998161e+08
-1.2714733e+09
-1.4614655e+08
-16389313
-4516824
-13324503
54709649
23875536
55027538
29800759
-48527881
-17772020
-32645556
11217751
-55785840
20039958
-10864570
31456339
78202057
53983160
1.6990919e+08
2.0647745e+08
1.4849535e+08
1.5771531e+08
-1.2211591e+08
38671036
-3.3221937e+08
2.3042279e+08
1.4900264e+08
1.6959108e+08
2.4263882e+09
54391598
79659516
50784338
1.4834058e+08
1.530208e+08
1.6146541e+08
1.4318745e+08
-2.9502745e+08
36490425
-81346313
1.6104627e+08
1.3952438e+09
1.3819971e+08
78503986
-2.9665595e+09
-2.5674895e+09
-2.9051076e+08
-1.3192845e+09
-9.5808786e+08
-2.1561666e+10
-5.6016931e+08
61330110
14017221
35101110
80482506
11505724
49268766
51584093
2.2665792e+08
2.0265389e+08
2.7131564e+08
2.0145539e+08
2.1851608e+08
2.0780333e+08
3.4318641e+09
1.5676487e+08
2.7681652e+08
2.6050484e+09
2.0579112e+08
5.3466061e+09
3.2160599e+08
3.8297557e+08
1.5710874e+08
1.9939856e+08
1.8055692e+08
1.494308e+08
2.0308787e+08
3.1866988e+08
2.2598065e+08
1.7095723e+08
1.8616541e+08
2.0890439e+08
1.7163088e+08
2.3468175e+08
1.3677524e+08
1.6102656e+08
1.1313924e+08
1.6727578e+08
2.2532937e+08
2.0452924e+09
5.9776836e+10
-4.1668539e+09
-1.2849733e+10
-4.0793311e+09
-1.9846746e+08
-1.3504572e+10
-1.2567862e+09
-6.203451e+08
-6.0137887e+08
-1.2283905e+10
-2.3262046e+09
9.4290943e+09
-9.3501941e+08
-3.4253217e+08
-8.4998286e+08
-6.5831186e+09
-9.6533925e+09
-1.7044625e+10
-1.6840906e+10
-1.5986177e+09
-8.4034459e+08
1.028414e+08
36753748
51252908
52381619
95154718
1.0197938e+08
1.2244307e+08
1.7927411e+08
1.1919397e+08
1.2170874e+08
1.7934132e+08
74794844
31653310
-3026007.3
21369661
96423942
61718377
1.0568821e+08
2.1524991e+08
1.2515926e+08
93041818
2.0356733e+08
1.4393038e+08
94024454
1.5116037e+08
1.1988019e+08
1.255999e+08
1.2046541e+08
1.3977116e+08
1.4336879e+08
1.2753786e+08
1.6269308e+08
34156825
1.3101546e+08
1.258469e+08
1.5473814e+08
-5.0452035e+09
-4.4444063e+08
-2.6954068e+09
-2.6214224e+09
-1.6948604e+09
-8.7247493e+08
-3.9569898e+10
-5.9283435e+09
-8.4864708e+08
9.8201514e+08
1.4065909e+11
-5.8187476e+08
-4.5970655e+10
-1.6665693e+09
1.7689484e+08
1.4804676e+08
72265214
1.2026757e+08
1.121632e+08
1.2032597e+08
1.8222602e+08
1.2800749e+08
1.5901615e+08
1.3169604e+08
1.9101742e+08
-5.1495653e+09
-9.5462219e+08
8.0547415e+08
8.0385632e+10
-6.2494443e+08
1.6211355e+10
1.0809689e+08
56640518
40771895
86318951
58776730
1.0130372e+08
1.0969517e+08
43735737
67151795
1.1058144e+08
59598737
1.1244671e+08
1.2571664e+08
1.0456484e+08
1.5954521e+08
1.1717552e+08
1.7120724e+08
85114865
99530425
1.3012534e+08
70747792
2.0545754e+08
-3.0905472e+09
-7.2271113e+09
-4.7467618e+09
-4.3828992e+09
-3.3484042e+09
-3.7896628e+09
-4.2952141e+09
-9.7480055e+08
-8.0057923e+08
-1.3515212e+09
-8.8855504e+08
-1.0846733e+09
-6.7466069e+08
-1.0953904e+09
8.8926374e+09
9.3358134e+09
-1.1252693e+10
-8.0673978e+09
-1.5553523e+10
-9.1236667e+08
1.3070034e+09
-1.2026547e+10
-8.2101547e+08
12133.671
13270.923
8071.0031
8412.0571
12164.232
9238.9134
12678.77
8228.1018
12383.342
9482.2655
12792.256
13848.477
16650.024
13509.416
16842.505
13786.27
16922.545
17859.431
18260.073
8322.5087
8103.5142
8596.4771
7858.3618
12782.34
9116.9113
12581.096
9589.8935
12818.279
8963.478
12607.6
16545.123
13604.86
16754.357
13814.508
16956.752
13669.982
16854.695
18319.552
18239.202
12422.555
8557.4222
12420.609
13538.797
16828.405
12100.029
9236.0549
11843.326
13242.185
12774.57
7421.3179
8595.5577
9114.6812
10666.764
12350.018
9591.6959
12799.874
9702.8205
12083.913
11052.66
12582.264
16777.698
13785.863
16919.7
12917.091
16159.988
13262.08
15894.93
18293.573
17258.659
8812.7412
8106.8988
10870.309
10003.814
16937.678
13648.716
16878.137
13261.864
15860.844
13088.439
16029.397
18114.577
17079.204
17272.526
7778.0343
9240.3942
12402.647
9868.7485
12194.81
16887.821
12985.123
16117.53
17203.359
19494.655
10024.116
11650.469
17090.361
10038.23
12317.52
8174.1932
5492.2485
10465.424
12499.743
21925.899
26827.621
11901.29
12374.098
12427.963
19056.191
10493.293
22565.071
11369.351
15305.254
12685.414
14616.285
8254.8675
4696.2628
8464.4456
3364.0456
16013.664
4841.5275
3240.0288
12688.336
11575.991
27076.655
24632.986
15962.625
3095.3588
3792.4486
10756.27
22579.496
12000.295
19388.241
10566.666
14849.785
8271.1614
4662.317
4870.9872
26346.803
73857.902
22049.595
8913.9687
56201.884
1714.8904
5330.8737
-1363.521
-13103.507
-46816.434
-57055.435
30149.026
37000.146
85627.553
105607.76
-2815.1561
5724.167
-4673.5765
-12867.739
-49697.426
-11561.062
-55592.933
-6020.2142
-56341.154
-65437.807
37415.281
33820.472
193174.2
106573.92
95119.842
-5025.859
-65812.751
-62461.232
30877.166
86323.755
9643.7355
65197.816
4509.6026
-100.21262
-2561.0509
-12316.807
-51190.549
-12433.124
-60485.552
105488.03
299520.81
79381.791
-2663.0311
213139.1
-32408.942
-25002.445
-76966.323
-99225.923
-260835.33
-89878.237
-293277.37
122096.25
286654.85
151624.91
349528.76
891760.89
457631.42
-102863.32
-307930.97
-322175.71
153151.74
136299.03
918900.97
468009.73
407666.04
-99188.935
-323050.55
-313459.57
123467.18
364792.65
1309.0279
-5491.0659
259859.37
-19742.329
-43280.248
-82210.629
-23633.722
-91820.729
-266276.65
-98352.003
-309170.78
430067.68
1132300.1
296306
-54911.017
729395.55
-220188.06
-147627.8
-373029.28
-458379.87
-1014173.9
-417085.42
-1113284.4
497150.17
1366599
661871.21
1360458.5
4782800.1
1953727.1
-452505.72
-1148348.3
-1171696.3
679138.49
584137.48
5006613.6
2018689.8
3823470
1636171.7
-441951.46
-1174217.8
-1146480.6
518341.14
1405670
-35151.367
212243.22
-69450.326
924976.27
-159398.22
437927.42
-264659.88
-376715.97
-146102.07
-412653.8
-993089.24
-463343.67
-1125256.2
1507940.2
3023793.7
940585.5
-342776.38
1585858.9
-1288763.5
-661954.41
-1383105.1
-1955397.9
-3262567.9
-1508516.5
-3454144.7
1840523.3
7311888.6
2749923.8
3993898.3
24569041
6781045.3
-1575095.1
-3510159
-3591893.8
2851783.5
5358508
2250588.7
27216268
7085540.2
15732015
5098381.7
-1544861.2
-3592421.2
-3541357.9
1907428.9
4020596.5
-257574.55
530155.28
-408421.32
2286975.5
-1050930.2
571807.65
-1448895.1
-1350979.4
-674494.13
-1779411.1
-3216715.9
-2003506.9
-3507314.4
3529500
2851853.5
1664880.4
-1974658.8
-536920.81
-6230039.6
-2772354.6
-4229781.1
-7241177.5
-8897643.8
-4530247
-9186434.7
4828800.9
36374652
8704047.1
5252946.5
87390883
12786070
-4626910
-9179837.3
-9125960
9129045.8
22252035
6326211
1.0175241e+08
13663885
47388458
8347316.6
-4558426.5
-9102973.8
-9029797.1
4853895.1
5617828.5
-1639356.3
376169.25
-2153963.7
1472588.1
-5493720.1
-2368021.4
-6133142.5
-4201645.1
-2822831.1
-6713055.5
-8675041.7
-7126088.6
-8574495.6
-9010342.8
-6828175.9
-7468806.7
725551.32
-16916060
-2977088.9
-8662558.1
-18284891
-19053028
-9588481.7
-11008076
-18970754
-18622587
-11238714
-18508042
3268826.8
1.0421255e+08
11262631
-16068841
13889452
-14839867
-11125855
-18458740
-18305672
12197865
55899603
6835583.9
9687565.1
-14862304
17392030
-12965392
-11013161
-18250512
-18437576
-18130208
3959688.6
-13476225
-7796888.7
-4603732.4
-8328358.6
-15604973
-17904657
-16882715
-17971395
-10712470
-9420884.5
-10627898
-18077128
-18127154
-18071692
-18089060
-18100289
-8716119
-17990151
-18059632
-25883433
-51219779
-25377905
-23100601
-44559504
-34492575
-22507207
-21370923
-32618261
-29479757
-21120760
-28872206
-25908505
-30445082
-27674286
-51628578
-1.2717859e+08
-58844385
-20899195
-28732081
-28398531
-27992504
-6550033.1
-22966972
-3.4005934e+08
-63502704
-1.1392487e+08
-48123444
-20624026
-20702620
-28319520
-27491254
-28155776
-22264485
-45454134
-21825573
-22299068
-21593893
-40402512
-32375303
-37668186
-31893201
-20815298
-21271054
-20770054
-30962423
-28582542
-30518902
-28643265
-28119017
-21547531
-31834201
-30724581
-54692461
-53303757
-48107504
-37487929
-50250845
-43091598
-35406527
-31896134
-41212581
-37724492
-31217937
-37013707
-53894815
-91219814
-62517847
-48938994
1.0145272e+08
-47362830
-30650755
-36796523
-36285585
-70313609
-66873347
-49663894
-1.7459138e+08
-54242593
26819911
-41447180
-29637463
-30398539
-36168706
-35234083
-35976480
-47692453
-43342281
-35057090
-41006898
-34686726
-43284045
-39921948
-44747951
-40085106
-30891110
-33145226
-31015790
-38780877
-36460101
-38727726
-36689074
-35972264
-34654722
-40132844
-38996389
-52395156
-51348487
-50019061
-44087751
-49557567
-45781185
-42408679
-39182065
-44641735
-42311333
-38507748
-41797934
-47440658
1.2929552e+08
-42737375
-45949436
1.5974762e+08
-35799323
-37748698
-41572777
-41014152
-48774607
29452036
-39259329
-67145685
-40244553
31707359
-36460149
-36757594
-37424782
-40880451
-40283847
-40673413
-41906744
-40159717
-40772950
-45025101
-41128486
-41829664
-42358072
-45574313
-43112764
-37865723
-39942130
-38094244
-42014433
-40951764
-42384013
-41157908
-40672488
-41201168
-43233257
-42578015
-51046587
-51024060
-49430282
-46108272
-49355458
-46735071
-45101191
-43029098
-46004133
-44523087
-42569167
-44195795
-45772453
1.6774949e+08
-34884434
-45885304
1.7490357e+08
-33970165
-41795390
-43998789
-43486811
-39004524
26671458
-36277500
-25662351
-37351490
23929895
-36484665
-41152701
-41454093
-43358839
-43063462
-43164957
-40031546
-40335275
-42731293
-45664086
-43548780
-42151770
-43617382
-46067024
-44494702
-41683032
-42931970
-41879977
-43606846
-43281149
-44105874
-43440136
-43163629
-43675662
-44623776
-44241380
-50816448
-50677854
-49271438
-46860130
-49154109
-47075533
-46194796
-44858887
-46552291
-45542143
-44565861
-45327831
-45838248
1.8082848e+08
-33937570
-45844755
1.837582e+08
-34104082
-43884392
-45167164
-44736654
-37141281
18709282
-36683664
-1797168.4
-36905682
17703046
-37195695
-43516970
-43570951
-44625356
-44494282
-44454391
-40474539
-40908244
-43849328
-46107715
-44717132
-42649374
-44387908
-46254302
-45183902
-43661079
-44381947
-43808535
-44495200
-44488502
-44969192
-44603242
-44451469
-44844175
-45302513
-45066534
-50632321
-50166432
-49097798
-47105163
-48801230
-47084995
-46617991
-45690072
-46695068
-45971426
-45496027
-45825674
-45801710
1.8927534e+08
-34134552
-45628316
1.8914236e+08
-34385302
-44934791
-45699412
-45353431
-36847122
13350582
-37359426
11817281
-36859601
14460873
-37688696
-44722679
-44662070
-45261259
-45208527
-45111138
-40991784
-41221241
-44522871
-46248631
-45289214
-42934954
-44825918
-46296989
-45503136
-44683689
-45104248
-44789469
-44984217
-45105936
-45381341
-45184606
-45104804
-45404610
-45608032
-45453482
-49971679
-49433638
-48673941
-47051452
-48252414
-46910444
-46691288
-46025620
-46629899
-46112472
-45893037
-46011130
-45564286
1.939531e+08
-34440750
-45417079
1.9067125e+08
-34822404
-45448775
-45915038
-45643149
-36882767
10656570
-37787838
17442047
-37075176
13558566
-37968060
-45319628
-45215681
-45566804
-45546489
-45434119
-41231132
-41334881
-44899070
-46249478
-45546458
-43068361
-45053332
-46258076
-45617488
-45204539
-45440966
-45274120
-45236644
-45410739
-45549557
-45453454
-45423375
-45648444
-45709758
-45605899
-49206656
-48749006
-48104550
-46862278
-47761721
-46758737
-46603642
-46125122
-46546663
-46140035
-46031604
-46059857
-45288698
1.9499577e+08
-34912470
-45067505
1.9148331e+08
-35070192
-45684640
-45983830
-45759100
-37128064
10128472
-38014196
20115612
-37205946
13453786
-38026943
-45594472
-45481622
-45692089
-45676989
-45567717
-41290845
-41226921
-45086088
-46141362
-45619513
-43045548
-45149936
-45973780
-45597503
-45455716
-45565831
-45490049
-45349347
-45538742
-45577696
-45551541
-45553179
-45707825
-45674479
-45618793
-48567291
-48713914
-47675143
-46747546
-47771297
-46767809
-46541747
-46141735
-46556196
-46152233
-46062777
-46073271
-44911730
1.966284e+08
-35006696
-44876173
1.9285089e+08
-34978279
-45770801
-45998879
-45776896
-37149578
11366475
-38008822
22044096
-37109922
13893434
-37989118
-45687842
-45580688
-45709650
-45695155
-45581968
-41136992
-41181179
-45161853
-45849225
-45585017
-43019348
-45151181
-45916011
-45579202
-45552030
-45574158
-45559647
-45355599
-45550738
-45568272
-45556790
-45566017
-45659413
-45653867
-45606400
-48966998
-49654132
-47900445
-46792574
-48324418
-46902584
-46570523
-46156334
-46634040
-46155998
-46076239
-46065936
-44991183
1.9706541e+08
-34873530
-45308385
1.9250749e+08
-34665156
-45769511
-45975437
-45712991
-37077452
10714826
-37992834
19108111
-36948247
12307777
-37902309
-45689253
-45570105
-45635973
-45631377
-45491523
-41172872
-41229657
-45131127
-45910682
-45581500
-42980553
-45036179
-46054216
-45569171
-45536728
-45565706
-45546163
-45239601
-45452873
-45528248
-45475034
-45474445
-45658958
-45657821
-45577457
-49606328
-49747091
-48382648
-46935098
-48469996
-46962174
-46651251
-46147951
-46644347
-46084155
-46053540
-45979370
-45249540
1.967312e+08
-34513783
-45344898
1.9229938e+08
-34062418
-45681552
-45868850
-45547416
-36875903
10003052
-37840156
18146969
-36416028
14005535
-37385532
-45598267
-45449194
-45452116
-45461963
-45265544
-41173275
-40930420
-44987439
-46061120
-45549838
-42685283
-44753556
-46155335
-45405615
-45408386
-45499702
-45434359
-44964253
-45210317
-45329561
-45237913
-45241211
-45642689
-45510886
-45390563
-49689604
-49655811
-48436788
-46942125
-48305281
-46758041
-46616777
-46046883
-46421452
-45883828
-45941375
-45796507
-45235367
1.9790925e+08
-33697574
-44954882
1.8697552e+08
-33081563
-45490461
-45680590
-45308161
-36078849
11923480
-37138068
9867756.4
-35658217
18527414
-36291296
-45408340
-45183698
-45182719
-45272552
-44879512
-40688390
-40002584
-44632910
-46018990
-45308601
-41882169
-44098112
-45612739
-44810715
-45117997
-45230933
-45139528
-44355760
-44743532
-44742864
-44703249
-44816705
-45417042
-44924583
-44799523
-49460929
-48783603
-48149300
-46627810
-47299685
-45824640
-46299119
-45812068
-45601520
-45545879
-45743719
-45614134
-44707489
1.8744596e+08
-32972980
-43780348
1.7831736e+08
-32516068
-45256806
-45566127
-45273404
-35723681
17270591
-35974172
-20576119
-35765038
24002134
-34506653
-45261507
-44764071
-45103204
-45540802
-44466376
-39627358
-38105598
-43835337
-45265399
-44538544
-40094967
-42579357
-43756912
-43165153
-44580068
-44485412
-44494782
-42993274
-43974199
-43215525
-43580304
-44254218
-44652604
-43269295
-43223896
-48149096
-44036349
-46649126
-45314968
-42555968
-42207130
-45183138
-45436713
-42739600
-45401806
-45599171
-46339063
-43041257
1.7983679e+08
-32226384
-39471547
1.5912467e+08
-32587063
-45417846
-46780762
-47335071
-35722881
24124750
-33795356
-71717610
-37130166
30979814
-30876478
-45829337
-44439171
-47080214
-48790773
-45308351
-37265832
-33626691
-41908075
-42874224
-42408799
-35320033
-38349585
-38256876
-38347627
-43746140
-42531184
-43144404
-39417469
-43256889
-38931778
-41286208
-44506486
-42503883
-38382465
-38729207
-41714551
-23240598
-39993073
-40234609
-21602930
-27856293
-41256968
-45795581
-32338542
-51047720
-47375775
-58356357
-37495484
1.4516102e+08
-33069717
-21775472
-23721146
-28079680
-49230347
-62702308
-70289545
-38305033
27545023
-29556193
-3.7066043e+08
-36577842
-9175906.9
-19519425
-51751705
-46422499
-69112050
-90507177
-58197529
-31826378
-18461250
-36274950
-35464802
-35980721
-18003780
-24004005
-17830593
-22022571
-43349717
-36871093
-40416441
-28089934
-46166866
-25037671
-35928798
-53033779
-35971307
-21836001
-23970310
-8262956.7
64129715
3355062.4
-9738287.3
-11707998
7533375.6
-22135177
-23865123
-29878359
-13829726
-67048310
-1.3425083e+08
27552636
-12041798
-827220.15
-7080449.6
26512287
43213005
-20538533
-12432454
-21073567
55584247
18565591
51027084
25723481
-61242266
-29708773
-73728224
3474594.1
-1.0773533e+08
9003451.9
-1.8737558e+08
-1.5157951e+08
-88236245
-83566635
-97953438
-1.0000179e+08
-1.2398412e+08
-1.1523965e+08
-62828700
-1.422381e+08
-1.2079834e+08
-3.7451273e+08
-67258005
-1.0135334e+08
-1.9316924e+08
-71512153
-23794570
-55349458
10560285
-1.6847462e+08
12547869
-80265938
-6263896.6
65730183
-97750209
-12965619
31075626
24081329
91968936
1.7873058e+08
1.0825554e+08
75314755
65548027
1.1053819e+08
78981437
33802053
27135705
98528540
-1.598741e+08
85000259
1.3692904e+09
2.2519631e+09
1.5479943e+08
1.2385548e+08
1.8726327e+08
1.407326e+08
1.4706894e+08
1.7876231e+08
-1.6491597e+09
-5.6143382e+08
-4.674242e+08
-3.360285e+08
-9.5803076e+08
-8.196325e+08
-6.7737003e+08
1.446518e+09
4.5017308e+09
2.073281e+08
2.1983008e+08
1.3151016e+09
3.0881544e+08
1.5793123e+08
1.8849212e+08
5.5174304e+08
-1.3953907e+09
-8.8191833e+08
-4.159941e+08
-7.4005124e+08
-7.8125111e+08
-6.1291441e+08
-1.5538025e+09
99231620
1.847128e+08
1.111885e+08
72567527
85575184
1.1413234e+08
73152860
1.0096974e+08
1.1786103e+08
26621802
1.137438e+08
2.7921197e+08
2.0896472e+08
2.7782911e+08
1.9672842e+08
1.9473118e+08
2.3351355e+08
2.3452685e+08
2.0176544e+08
2.244228e+08
2.1295183e+08
2.7214521e+08
2.4408499e+10
2.5765927e+08
5.8883662e+08
2.9897026e+08
3.8190993e+08
3.0700004e+08
1.2242256e+09
2.5615685e+08
1.6746625e+08
1.8199889e+08
2.6700583e+08
5.4341053e+08
2.0907332e+08
2.0793997e+08
2.4568729e+08
1.9678622e+08
1.8904383e+09
5.1502283e+08
2.5700533e+08
2.099125e+08
3.1590473e+08
2.8641957e+08
5.5698606e+08
5.6948588e+08
8.2383318e+08
3.7287276e+08
4.9235971e+08
5.7784e+08
2.8281613e+09
4.983141e+09
2.901581e+08
4.3685955e+08
2.1459697e+10
1.7425683e+08
1.773604e+08
1.6232181e+08
1.8265249e+08
1.9761267e+08
1.7878455e+08
1.7480856e+08
1.2062615e+09
1.559159e+08
1.6378242e+08
2.0283684e+08
2.9114303e+08
1.4097308e+08
1.9440651e+08
1.0000648e+09
1.6129564e+10
1.3992488e+09
7.6896369e+08
4.8998649e+08
2.0291349e+08
2.2054751e+08
2.0297111e+08
2.9089305e+08
3.1559744e+08
2.8596104e+08
3.1590418e+08
1.9641333e+08
1.3078704e+08
2.4015629e+08
1.5436642e+08
2.8799117e+08
1.9720193e+09
2.0225312e+08
3.1009474e+08
-8.5375847e+09
1.6279518e+08
3.2236231e+08
1.629012e+08
1.7680303e+08
1.7410831e+08
1.3830705e+08
1.3092639e+08
1.2567755e+08
2.0857225e+08
1.7620693e+08
1.7224448e+08
2.3218328e+08
2.5552616e+08
1.8510901e+08
2.4062588e+08
2.3632178e+08
2.1173002e+08
2.7054281e+08
1.6188268e+08
2.4998506e+08
1.2802566e+08
1.4087716e+08
2.7918181e+08
1.6947252e+08
3.2472679e+08
3.7137449e+08
3.2695855e+08
3.6968788e+08
1.1318305e+08
75581184
1.34088e+08
92601232
3.1922428e+08
-3.2865505e+09
1.6662341e+08
3.6756812e+08
-9.0906728e+08
2.8539218e+08
1.6885309e+08
98180359
1.2938443e+08
1.3448432e+08
1.4432098e+08
2.9915184e+08
1.8933456e+08
1.6429025e+08
1.3837418e+08
1.4683258e+08
2.6425942e+08
2.2249594e+08
2.1364416e+08
2.7234118e+08
2.4345399e+08
2.3479148e+08
2.4978884e+08
1.3497671e+08
2.8450327e+08
1.3669764e+08
1.2402965e+08
2.9480393e+08
1.4795765e+08
3.8622262e+08
4.2355903e+08
3.8416376e+08
4.2058284e+08
65481188
40413742
82084300
55741633
3.8317461e+08
-9.233508e+08
2.9978283e+08
4.207457e+08
-1.413147e+09
3.5635787e+08
1.2507899e+08
60794576
98441231
3.199299e+08
1.8029107e+08
3.8499608e+08
1.1789885e+08
1.4177245e+08
1.1194882e+08
1.2426665e+08
1.8591431e+08
1.0779244e+08
2.3541628e+08
2.4257053e+08
2.0417212e+08
2.2898727e+08
2.089564e+08
1.2021145e+08
2.9776003e+08
1.1442736e+08
1.0273727e+08
2.9993115e+08
1.2614245e+08
4.3470277e+08
4.6940031e+08
4.3149394e+08
4.6390694e+08
32432683
9466462.1
47549170
23995803
4.3135167e+08
-1.4232367e+09
3.5925038e+08
4.6420096e+08
-1.3056455e+09
3.6573421e+08
94735000
28885664
66967676
3.8746204e+08
1.0956278e+08
3.9127994e+08
1.48405e+08
1.1742209e+08
81054824
91516357
1.0050183e+08
1.3971084e+08
2.2626222e+08
2.0751867e+08
2.1936368e+08
2.1288313e+08
2.3438611e+08
95496560
3.035463e+08
87152124
69244195
3.0180988e+08
93284613
4.8109788e+08
5.2622494e+08
4.7520502e+08
5.1550547e+08
1155923
-22239668
15862076
-7364988.4
4.7518644e+08
-1.2768511e+09
3.6435939e+08
5.1577175e+08
-1.1973335e+09
3.0267015e+08
62655812
-2299766.2
31215256
3.885242e+08
1.7535511e+08
2.8553713e+08
1.9981735e+08
80696464
40725064
38613913
1.7051202e+08
2.8009535e+08
2.1064536e+08
2.4345031e+08
2.7779159e+08
1.9059912e+08
3.2332309e+08
58111218
2.9885964e+08
59550395
15143704
2.557361e+08
39078619
5.5003416e+08
6.8428296e+08
5.3725904e+08
6.5546179e+08
-30171133
-47538820
-14716357
-29840155
5.368097e+08
-1.1566444e+09
2.8993848e+08
6.5988129e+08
-7.7135498e+08
2.8237292e+08
26345239
-25239040
-11959783
2.6441329e+08
2.1790023e+08
2.3074546e+08
2.3040402e+08
20702048
-14380087
-49045459
3.1768736e+08
3.7169953e+08
1.8745072e+08
3.3563388e+08
3.0561574e+08
1.6045388e+08
3.8983964e+08
-3426861.3
2.3307678e+08
36906591
-74717877
1.0431794e+08
-53577409
7.6621312e+08
1.2634958e+09
7.2836631e+08
1.1552586e+09
-49221556
33726912
-29917008
26440968
7.3400533e+08
-5.9743633e+08
2.9215471e+08
1.1931969e+09
-7.1561311e+09
4.8566661e+08
-18478182
1093264.8
-89658760
2.3616032e+08
2.3135291e+08
3.7009526e+08
2.3244648e+08
-77726301
-1.137931e+08
-1.6938662e+08
3.8098892e+08
4.0011719e+08
1.5304632e+08
3.9811728e+08
3.0590503e+08
-19429797
4.8071623e+08
-1.037419e+08
52857344
-1.2835898e+08
-1.8942014e+08
-1.0147229e+08
-1.737458e+08
1.550311e+09
2.6566275e+09
1.4183627e+09
2.7262961e+09
-4.8030772e+09
1.5913954e+08
-3.8453924e+09
1.2669555e+09
1.0117693e+08
6.4856383e+08
1.4504569e+09
-1.2959411e+10
5.446192e+08
2.0415642e+09
2.736946e+10
-3.103403e+09
4.2757494e+08
3.8270894e+08
-42473959
1.6018292e+09
-3.2218262e+09
-1.025953e+09
-1.0194212e+09
-1.1056393e+08
22807267
-5.0918023e+08
4.2049417e+08
2.4579958e+08
-2.110443e+09
13220824
-1.9609562e+08
-5.2272418e+08
-3.2051396e+08
4.2030463e+08
8.4354441e+08
-27546929
5.0794701e+08
4.0394426e+08
-2.4453243e+08
1.0842182e+09
-2.0249615e+08
-1.172219e+08
-2.6667848e+08
-2.9852615e+08
-2.9868666e+08
3.0529327e+09
3.6006706e+09
-8.9458536e+09
-8.1457494e+09
1.5848545e+08
1.3959984e+08
2.7088421e+08
2.9261055e+09
1.5150355e+10
4.4325862e+09
2.3782364e+09
8.0425244e+08
-5.3099054e+08
-1.4895328e+09
-7.8299556e+08
-8.4776255e+09
-2.6402645e+09
-1.6188826e+09
-6.0809203e+08
-1.1844228e+10
-3.3416391e+09
-3.9118592e+09
-3.3876671e+10
2.7531245e+10
-3.7359748e+08
7.3100865e+09
2.7185523e+09
3.0532336e+09
7.0033397e+09
-3.3640399e+08
1.3085796e+09
-8.5555602e+08
-1.0053712e+10
-4.7270886e+09
-5.0395654e+09
-1.7620181e+09
-7.8102708e+08
-7.5980716e+08
1.043084e+08
38516395
56661945
98713202
1.0771989e+08
79612577
58023761
1.1293163e+08
66938514
1.1309171e+08
1.0592565e+08
52713249
32233035
37689166
43881600
38423965
50925229
46579416
1.2729777e+08
1.8263325e+08
1.4275752e+08
1.7911957e+08
1.2408912e+08
2.0309914e+08
1.2492917e+08
1.7949176e+08
1.2649418e+08
1.4348227e+08
1.736947e+08
1.7787536e+08
1.4389537e+08
1.2367488e+08
1.7922956e+08
54526010
14542598
42114895
-31622525
-15455740
-35601957
2500509.5
7334327.3
25310029
1.0952579e+08
2.3548322e+08
1.2840731e+08
1.9118273e+08
1.1566233e+08
1.6454793e+08
1.0259577e+08
43563830
1.4603671e+08
1.6103805e+08
77444211
90760735
1.5826503e+08
1.349913e+08
1.0695035e+08
95841997
1.2170318e+08
1.1362586e+08
1.3304692e+08
1.204809e+08
1.6704066e+08
2.747547e+08
2.1323047e+08
2.6052256e+08
1.7833366e+08
2.071321e+08
1.5961821e+08
1.6618967e+08
2.0097752e+08
2.3603834e+08
1.6811601e+08
1.7745262e+08
1.9954119e+08
1.5213943e+08
1.4792571e+08
1.8674237e+08
1.6842577e+08
1.5727825e+08
1.4292701e+08
1.7787692e+08
1.5006264e+08
1.1835119e+08
3.9641002e+08
-1.6436023e+08
1.8735488e+08
1.0707453e+08
1.5032654e+08
-2.9861977e+09
-1.5818866e+09
-6.3735271e+09
-3.2124591e+09
-2.655222e+09
-2.9298322e+10
-1.9471651e+09
-2.2734586e+08
-3.8489652e+08
75949752
-8.3063058e+08
-4.8325841e+08
-1.0170277e+09
-4.0156075e+09
-3.5017069e+09
-8.2544766e+09
9.8521432e+10
-8.7270306e+10
-6.642604e+09
2.165823e+08
9.6877699e+08
2.5591797e+08
5.2876253e+08
2.4224572e+08
7.751059e+08
2.6748202e+08
1.7788303e+08
71806239
1.3140563e+08
1.2669182e+08
1.1972953e+08
1.2144626e+08
1.6302916e+08
2.0362096e+08
1.9736109e+08
5.987503e+08
5.3569727e+08
1.9936549e+08
1.4373198e+08
1.4190072e+08
1.4817531e+08
1.5223377e+08
1.4439392e+08
1.5195796e+08
1.3993356e+08
2.2159167e+08
1.3858978e+09
3.2448313e+08
6.2205475e+08
2.8780757e+08
2.5424328e+08
1.8811392e+08
1.5702731e+08
1.6411292e+08
2.2693114e+08
1.3441064e+08
1.9652461e+08
2.1809116e+08
-4.9650331e+09
-3.1434799e+09
-1.1903371e+09
-2.1141264e+10
-1.6363007e+09
-2.4042132e+08
-3.3448225e+08
-2.1490608e+08
-7.2684765e+08
-4.4702631e+08
-4.5476685e+08
-2.4674199e+09
-5.3671049e+08
-9.4750107e+08
-6.4646364e+08
2.0732881e+09
1.0626244e+09
7.7224069e+08
-9.8350531e+09
-7.1322849e+10
1.5025994e+10
-3.4272441e+09
-2.125655e+08
3.3237517e+08
-4.3740696e+08
-5.1428095e+08
-6.4234182e+08
2.0600222e+08
-5.5009504e+09
-3.0857687e+08
-7.7464517e+08
-2.0483991e+09