/*--------------------------------*- C++ -*----------------------------------*\
  =========                 |
  \\      /  F ield         | OpenFOAM: The Open Source CFD Toolbox
   \\    /   O peration     | Website:  https://openfoam.org
    \\  /    A nd           | Version:  12
     \\/     M anipulation  |
\*---------------------------------------------------------------------------*/
FoamFile
{
    format      ascii;
    class       surfaceScalarField;
    location    "3";
    object      phi;
}
// * * * * * * * * * * * * * * * * * * * * * * * * * * * * * * * * * * * * * //

dimensions      [0 3 -1 0 0 0 0];

internalField   nonuniform List<scalar> 
279700
(
-1.7110816
-7.0494503
-1.1729417
-12.92579
-0.05228277
0.86971794
-1.1724452
-0.43632625
1.027131
0.90673303
2.1132052
-3.3179348
0.21757496
0.21073704
0.17441996
5.233102
-6.0090082
0.14020136
0.47327465
-0.5500642
3.7532475
-0.67393191
0.17939336
-2.6907031
-1.5720321
-0.47107745
-0.042141904
2.0894849
-0.59239965
0.8203681
-0.15844686
0.13430803
-0.087949199
0.35154688
-0.32058819
1.3253398
-1.8101952
-0.085950862
0.60524248
-0.42915362
0.60247566
-0.90826194
0.85973256
-0.60925914
0.5805643
0.22777053
0.65970941
-1.7604257
1.1667421
0.26871633
-0.51236366
-0.10370171
0.046697184
-0.64806375
0.40234823
0.13398182
0.25799847
1.0997813
-0.25199734
0.067241147
-0.073329996
-0.55374754
-0.2474709
-0.13536076
-0.79448636
-1.1363976
1.3207669
0.90328514
-0.1345296
-0.30633458
-0.6288449
-0.98681893
0.66290167
0.78925148
0.49507271
1.419634
2.8182137
-4.9205171
4.7030047
-1.6894672
-2.3154565
-1.398363
0.1736931
-4.1533588
3.6800095
-0.25253716
1.9682253
0.28109872
-5.0094532
1.6901659
5.3804703
0.029133241
-2.3587989
-1.2645472
0.34468997
-5.76653
4.870496
0.085818729
1.7477553
-1.6087142
0.022481216
-2.368625
1.3312296
-0.020295829
2.6533824
1.8856044
-6.060585
-1.4596625
4.9796107
2.4099947
-1.7455425
-1.4393267
-4.3911793
-0.2476532
3.9420481
0.19738822
1.9559911
-0.34796788
0.53017301
-2.080209
0.8908333
1.0160254
4.3302173
2.6071478
-10.202201
11.527303
-2.6522871
-5.6076912
-4.5499035
-0.019312109
-10.042972
8.7362635
-0.077094693
5.9549972
-2.6329072
-4.58954
2.0302131
3.6630645
1.5336036
-10.58663
5.5137393
0.046725642
11.961003
0.11595941
-7.0474112
0.70134513
-4.476964
-12.730223
10.870894
5.374734
0.26352776
-7.629417
-0.19220981
-5.7293746
4.0121196
-0.050578733
9.5913705
4.3803646
-10.438001
-3.0561287
11.199672
3.5008879
-5.5788713
-4.8055468
-10.572164
-0.26717192
9.144362
0.32524928
6.1869371
-3.1134736
2.2696584
-4.4466349
4.3007317
0.99474344
7.4471278
-24.117615
11.136461
25.421503
-6.5152933
-13.365444
-12.025873
0.49232298
-21.875975
19.231678
-0.41504365
14.599995
-13.014725
-2.1983189
-11.284188
6.1067127
1.5050539
18.88818
2.7911704
-6.2896636
13.382055
-4.015438
-11.663415
5.7974212
-26.154345
13.010683
1.3268668
0.48820289
-15.840297
27.172089
-11.73566
1.9231392
-27.375044
23.432422
-0.13768496
13.899745
-17.749863
-0.49969788
-13.182658
9.7136148
-0.30222099
22.026275
9.5824768
-23.608947
-4.6239684
24.611012
5.3714145
-11.327172
-11.384259
-21.793817
-0.12261376
19.679882
-0.43786879
14.060222
-17.170134
3.0992584
-9.8509278
6.6424347
-4.7367079
22.022104
13.962715
-50.513964
15.987046
50.911704
-12.698627
-17.647414
-0.94455155
-24.526231
-40.277796
36.433636
29.391692
-0.072661436
-36.902032
-8.7372347
-18.069485
13.502589
5.0121415
45.195812
44.691714
-2.8452801
45.444271
-2.2292044
-57.132368
-27.928357
-62.060529
2.83259
26.289605
0.88366939
-30.250824
62.30699
-26.549483
-0.028632599
-52.712488
45.577638
0.10420706
33.610406
-41.910561
-1.0003173
-24.976482
17.288404
-0.44586194
51.042895
17.970863
-52.223862
-13.050435
50.384057
16.824766
-19.904939
-25.029824
-42.364568
0.26009359
37.953147
-0.40981187
29.591053
-43.856485
5.0112991
-22.645862
16.172241
-9.3679986
54.688749
37.674436
-108.5345
18.674825
101.11208
-33.189277
-15.736251
2.8027841
-52.258494
-74.344813
63.596531
62.895603
-2.6898396
-82.662664
-14.119808
-32.487115
23.711603
7.6869728
97.871966
110.45782
4.9794346
158.74256
9.1329534
-126.54863
-156.76322
-141.95036
7.2064477
40.248558
5.4934285
-40.158176
129.16137
-56.835593
1.0885019
-90.15196
82.250231
-0.73458339
64.38491
-86.736406
-1.0547274
-41.434517
27.814772
-0.77908966
102.18961
21.918751
-112.77451
-31.689939
101.27643
40.851834
-19.581874
-50.566401
-76.697138
-2.4714709
66.007291
2.833694
60.894384
-76.117656
5.7492726
-37.061253
23.024168
-6.514121
90.917429
73.724665
-198.24903
-13.634157
167.17602
-62.916297
33.900134
7.3669334
-104.1484
-105.49966
87.464775
122.84352
-8.0260338
-124.86788
1.4599737
-45.9553
33.088755
0.0097261691
136.26614
189.88627
33.329819
478.59826
42.690349
-165.35997
-579.14431
-272.1062
12.746759
13.089792
5.4675948
10.173239
230.62846
-106.16236
0.80937562
-129.27784
106.41875
2.0220881
126.19015
-155.52703
0.46759717
-51.028986
34.097717
-1.768991
173.75947
-8.8771737
-193.31626
-52.224997
175.09101
52.382771
26.944527
-105.59864
-110.56548
-10.398213
90.894481
11.378502
124.28969
-139.91375
6.061056
-44.90089
30.363003
-4.3037455
152.69421
64.565696
-226.75818
-148.72516
167.40819
-53.152001
196.6605
9.3290942
-183.36591
-80.677168
62.557967
202.75336
-10.598101
-180.48365
-2.6540042
-26.476797
17.043486
1.7390987
190.83631
-92.643633
-26.055496
805.09711
-6.7837901
451.49153
-1131.1059
-305.72654
10.847654
-170.20992
-5.7761696
245.43481
225.42906
21.930832
-215.94994
-112.12752
84.548946
222.96682
-1.3699315
-219.04896
1.8616429
-36.111715
25.943989
-1.3340578
228.68967
-128.33432
-232.26479
-46.335116
185.07388
50.919888
170.93927
-181.8149
-88.977252
-9.8958194
70.41823
12.124191
198.1463
-190.7937
1.6361652
-32.319654
23.653064
-4.841412
202.66753
-37.622333
5.1794249
-22.978338
54.786659
0.64138261
-43.908997
44.876092
-282.34257
-46.743694
44.049505
284.06858
-14.911301
-231.98153
34.326285
-26.223687
227.56963
11.218757
-202.55088
-2.5099956
11.230453
-7.1713168
2.220946
198.78006
-292.00962
-246.69809
-833.99969
-427.71586
322.60861
1477.815
224.78156
4.6104344
-311.42462
-42.303984
267.43798
-143.10202
3.393216
-267.24826
49.589415
-30.57685
254.92903
-10.087598
-228.25938
1.0055817
5.6741035
0.23589943
-1.5847192
222.93054
-244.55222
-2.4909676
53.817148
-10.417902
-39.89366
243.53511
-228.7664
16.387801
15.767264
-14.28727
-16.517293
227.41632
-217.57019
6.0725098
4.7448607
-2.108579
-6.2955451
215.15763
-77.745569
12.291355
3.831154
73.800426
-12.177412
-57.362667
216.10441
-171.18049
-172.66613
72.058467
113.04597
-11.467749
-182.97374
90.633282
-70.456956
164.3873
9.8785685
-174.51301
6.4837617
30.540974
-18.906727
-6.1358822
162.53163
-173.10851
-489.38298
-1392.799
-604.20845
85.031652
2574.4674
372.13889
-4.4914754
-141.6399
-58.328041
97.464436
-265.14382
6.0090925
-204.35558
125.56806
-89.025302
184.48384
-22.680886
-199.38919
6.2010319
37.103101
-25.184348
-6.064527
187.33494
-138.46219
142.35038
94.048349
-126.13197
-68.237779
96.432189
-188.24186
70.520047
27.308476
-56.93375
-24.415736
171.76339
-195.35947
5.9680527
25.801685
-16.607915
-4.1092678
184.30563
-54.609066
-6.0773258
20.961881
48.662368
-8.9419925
7.7652711
-2.8590591
-22.817774
-77.973879
69.356805
26.530088
-4.029213
-107.64857
91.526339
-76.902817
92.017918
5.0382008
-122.91905
11.16384
37.482806
-24.204222
-11.250765
109.73107
-2.1344969
78.938775
-1062.0817
-67.334085
-3.2169482
1055.8285
347.90255
22.039664
-32.264924
-106.4234
23.599793
-254.85471
15.436689
-126.42307
140.54274
-103.31588
109.78572
-36.026163
-146.52463
9.8831634
46.85869
-32.682455
-9.6907764
132.15902
-19.712916
-120.67538
191.81809
-11.018843
-63.087358
22.673818
-123.05042
68.607118
36.616519
-61.31289
-29.992137
109.13243
-145.52282
5.374811
32.758877
-20.948924
-3.1156226
131.45561
-33.470956
-8.6370575
18.588299
29.61454
-6.0994998
41.579955
-33.132584
-28.344409
-26.379962
17.484764
28.793656
8.1459966
-58.783842
57.886177
-52.6317
51.250471
-5.8651278
-76.684257
12.213861
29.432244
-19.469566
-13.069623
67.58074
3.8300505
117.50829
-910.78865
4.7098522
-4.1034157
788.84392
251.17279
25.706868
-14.827993
-88.101037
15.436514
-189.38661
25.10164
-72.290892
108.97359
-79.377499
63.148152
-45.555017
-95.080382
12.524541
36.619369
-25.918213
-12.498135
84.354519
-28.239662
-157.16385
95.295935
79.371921
-15.021422
25.758343
-77.059557
28.357475
42.130227
-32.516672
-29.446676
68.537397
-95.655819
8.2032872
21.651615
-13.859855
-5.6844421
85.345378
-21.030718
-4.5333462
8.3717325
18.794467
-1.6064071
56.735835
-37.587417
-22.7068
-14.934491
-2.3633133
20.857829
18.08498
-34.857463
39.432894
-36.236089
30.860135
-17.284093
-46.42386
13.058176
21.571783
-14.388369
-14.610409
40.794655
4.2598782
146.88828
-786.7547
41.992754
-2.5123953
596.12623
250.96544
9.2616883
-20.415531
-83.53808
19.13095
-175.40372
30.486784
-43.504963
83.901987
-58.18399
39.255962
-51.956485
-59.251897
15.089118
25.167396
-17.91505
-15.346187
52.258
-20.03728
-157.22868
67.701334
89.308262
3.4792925
16.777057
-48.484881
-2.1713685
42.603053
-8.0273635
-26.547214
42.631623
-61.356496
11.672558
10.141905
-6.3514971
-8.5640998
54.45689
-13.221481
-2.4784728
2.2850426
11.702106
1.709225
63.595323
-41.106891
-14.541321
-7.94502
-11.302909
11.301564
23.756048
-21.555278
33.452582
-29.472745
18.885746
-25.066168
-27.688755
14.256363
17.382568
-11.464667
-16.659999
24.17514
3.3388218
156.43151
-703.78099
56.053896
-0.83072833
488.78754
261.58501
14.26996
-12.473378
-76.309887
11.230964
-198.30159
27.087361
-30.057246
86.124559
-54.820639
25.543452
-53.875751
-36.301843
18.840473
18.875936
-13.131555
-20.157308
31.876183
-11.630092
-166.83646
58.774944
97.75633
12.325522
9.6105809
-27.994316
-16.482822
37.326479
7.4239243
-23.901093
23.634647
-38.321309
15.212406
1.5648793
-0.69864827
-11.156553
33.402349
-8.0561931
-1.5250054
-1.5245326
7.0836102
4.0180383
67.04237
-58.107447
-5.5169865
3.6521007
-12.420838
5.3513309
25.09137
-12.070691
30.974548
-27.451358
9.9474519
-26.490433
-15.723801
15.499175
15.856208
-10.117892
-18.91265
13.400249
0.36976055
149.89095
-657.44299
63.274908
2.0693713
441.83805
277.47838
15.152449
-7.3178675
-69.870512
7.0849448
-222.52585
22.971483
-15.581654
70.134134
-42.555621
12.294118
-47.258441
-20.535516
22.340823
14.19924
-10.255969
-22.842152
17.09816
-5.4058521
-176.89763
54.938358
105.21403
17.964201
4.1875278
-14.290066
-23.393267
34.725872
14.191204
-22.918829
11.691467
-21.765858
17.734829
-4.3172045
3.564765
-13.379878
18.168923
-4.6568373
-0.63260183
-3.9349904
3.9893484
5.230825
62.176213
-62.933632
-0.45677601
12.410666
-10.082389
-1.1129685
24.004123
-5.3688801
28.09885
-26.095276
3.9897728
-24.62663
-7.5619638
15.893139
15.189813
-9.4149902
-20.061064
5.9593683
-0.0025150936
135.47603
-639.66411
63.595505
1.3635047
439.23161
289.78047
13.953919
-1.403609
-70.783057
0.10500182
-231.6517
21.474003
-5.9429806
57.492718
-33.917374
4.046277
-43.149224
-8.9078903
23.242593
10.570345
-7.9081133
-23.695513
6.7038728
-0.34177743
-183.84655
52.890992
110.02968
22.457561
-1.1895263
-5.7728745
-28.481872
32.531905
19.060762
-21.541504
4.208932
-9.7169691
19.70923
-7.7095423
6.1702408
-15.835654
7.3883211
-2.1059561
0.20921821
-5.7411482
1.5892308
6.0442743
65.751067
-82.094685
3.3482121
24.707947
-9.6173402
-2.0933199
23.743271
-2.0915851
21.869104
-21.547244
1.139857
-23.11113
-2.2825634
13.478067
11.289907
-6.7712326
-17.22445
1.514431
4.1988041
119.78907
-623.81726
57.387435
-6.3673269
448.80934
294.82575
11.473695
4.8426372
-72.246919
-2.9724834
-235.91983
20.540015
-0.71825607
46.45945
-26.346401
0.041589897
-39.973049
-2.2712859
21.860328
7.3397354
-5.5898013
-22.799253
1.4651856
2.9816782
-191.82497
52.243627
115.02913
23.879414
-2.308019
-1.2979484
-31.84953
30.169728
22.2947
-19.676505
0.36416993
-2.4981468
20.881624
-9.478774
6.7506078
-17.014962
1.3642205
-0.2777294
0.66499469
-6.6981086
-0.018395113
6.3257352
69.873445
-77.259729
-1.3037009
20.832823
-12.609467
0.46715259
25.078416
0.40443082
24.50494
-23.687947
-1.5208094
-24.778289
0.25911958
15.230642
13.07762
-7.8846204
-19.70659
-0.97400949
-1.1582047
123.19066
-633.57361
59.167381
-0.57276221
452.94654
291.56541
12.309506
-2.9683313
-72.487584
2.4986356
-230.91684
21.831963
1.4821679
47.973019
-27.552409
-2.32708
-41.405988
-0.17533247
24.076617
7.3792303
-5.6099133
-24.81342
-0.85312559
0.62522545
-188.48937
52.721987
113.61256
23.463421
-1.9331873
2.5463543
-31.998872
31.636763
22.676401
-21.137479
-3.717221
1.8300775
22.458912
-10.75893
8.3432053
-18.672649
-3.1983288
0.75717248
1.9733282
-7.544851
-1.2100924
6.0226055
72.503525
-70.440491
7.3398403
11.204306
-15.084439
-5.5229869
26.021921
5.0185596
27.528967
-24.778924
-6.951391
-26.839623
3.3487017
17.26733
13.891354
-8.4612647
-22.026138
-4.0191979
4.3522645
138.42584
-644.05802
64.911679
-3.1363105
439.50453
282.32445
14.089158
6.2690316
-73.233753
-8.1419851
-221.30738
24.898997
7.67291
52.730283
-29.667501
-9.999665
-45.634582
4.1808468
26.713252
6.5642836
-4.671332
-27.528584
-5.2535977
4.6953938
-183.74691
54.808042
110.61482
20.673639
-7.0444324
8.4129534
-30.927309
34.825814
22.337321
-23.769794
-10.875764
8.2370733
24.248289
-12.547268
10.574522
-20.208413
-10.300629
2.8908065
2.8245294
-7.1612531
-3.6429054
5.081579
64.716432
-58.551952
16.195295
7.3555777
-13.368974
-16.346569
26.975111
12.748045
22.114349
-18.301921
-15.176522
-28.359938
3.5753924
16.746099
7.8699475
-4.2813356
-21.863967
-2.0458698
13.238355
157.41233
-628.45283
76.970276
-5.968299
386.80017
275.34006
14.95824
18.36447
-76.279117
-22.819275
-209.5645
30.715871
20.645164
44.806909
-20.769501
-25.27013
-50.129206
5.4678785
30.430194
-2.5595051
3.1016336
-32.469458
-3.9682076
15.212451
-172.22713
54.238785
105.26357
16.427855
-18.915879
21.748589
-33.530692
38.874587
27.317261
-27.31862
-27.089937
16.231749
30.200247
-20.970361
17.905207
-25.493638
-17.871657
6.9224054
5.4356667
-7.1181471
-8.4711223
3.2241869
63.9955
-59.612997
30.803407
10.840123
-10.290382
-35.73488
29.21962
23.720877
1.5941475
5.4119668
-27.736043
-32.211587
-12.329871
12.961552
-16.542127
14.287438
-20.370462
21.990234
-7.6176092
151.04271
-712.00436
50.962631
6.0256697
511.59095
250.34845
14.628396
38.302203
-89.191369
-45.56835
-168.52109
48.528234
45.881528
2.304669
21.012581
-54.743547
-62.984867
-11.615552
39.755238
-38.219146
33.361017
-45.655524
22.375314
33.974534
-174.91448
64.731385
112.03779
7.9273475
-43.757524
51.301496
-57.782856
52.470293
56.899076
-39.201963
-63.683697
17.308421
48.450837
-52.16399
43.838823
-43.75063
-13.683541
15.176765
17.630023
-13.444401
-18.639472
-0.72882355
62.180856
-66.771153
82.10941
34.386762
-4.5130488
-107.39277
28.707546
46.73229
-67.973517
86.235644
-58.097928
-35.604112
-68.61912
-21.5234
-88.109742
67.0561
12.395079
98.802005
2.370576
130.51311
-841.07172
28.851519
-3.0276989
682.36427
213.55093
34.076684
80.19773
-122.90225
-91.485241
-113.43794
74.152824
83.331036
-115.48519
139.00066
-91.924289
-89.073543
-89.479934
46.606922
-130.81758
106.80387
-64.966701
131.85414
97.905953
-205.47075
97.011034
153.02719
-7.8314708
-134.64181
115.83152
-142.51903
82.499408
146.63774
-65.909575
-136.53426
-15.936233
81.497705
-122.90496
96.608823
-73.981332
34.718325
34.930484
54.041254
-35.369075
-43.768559
-9.8407833
44.116671
-78.594301
230.45253
84.416929
9.4253886
-289.81587
-12.322806
102.1415
-229.2681
255.4419
-117.18821
1.1986015
-271.74169
-98.775878
-221.64603
131.31724
105.71459
355.12909
-1.8691698
86.240606
-1011.2987
-33.918521
3.0041798
957.84167
249.6418
49.573041
159.35663
-152.88853
-202.36861
-103.30912
88.120823
128.16953
-324.92393
358.82046
-148.10508
-102.0728
-384.77584
39.104571
-290.59402
179.14332
-82.557679
539.68775
352.68151
-298.33594
142.74312
270.92496
-21.757083
-446.24707
184.42922
-267.60917
109.22576
278.27342
-98.16951
-206.14527
-139.259
154.58895
-257.14339
191.03377
-141.67889
192.46168
86.36483
136.70716
-90.439518
-100.77626
-31.866961
-11.42724
-107.99727
606.99414
162.30618
72.691
-722.55358
-70.732824
-415.84793
263.38303
508.11789
-308.89494
23.986906
-692.59207
-473.85747
-496.87375
292.24149
495.88372
875.20106
-570.41685
67.368731
-1593.8902
-763.54745
-55.334917
2915.822
460.33815
51.429802
509.68733
-87.421687
-808.96203
-125.0311
83.326343
-652.87878
306.53981
827.54598
-134.73284
-429.77146
21.108646
-1193.3767
-871.13484
648.08294
-242.10038
1637.4325
801.50603
-91.631566
106.1083
182.39325
-5.6125338
-992.74477
-428.4349
383.54887
91.703951
516.10875
-116.69627
-446.20797
468.39823
-578.77617
-375.4437
439.80698
-381.42047
427.43796
120.00725
127.46209
-137.86818
-146.04708
36.446589
-13.4441
-377.55165
1106.9443
463.22858
-29.146668
-1150.0276
-6.725667
-67.207632
158.40523
75.870501
-162.11642
1.7727866
-830.44076
-2013.0778
-1283.1315
1892.8286
1875.5112
358.30968
209.25487
-643.3655
143.46603
237.21716
-186.5882
240.01587
-84.603603
3.8320177
268.15161
5.3039974
-248.26907
55.585917
41.757565
-640.69559
1112.9578
965.75907
-31.936626
-1447.8508
69.381009
-627.4822
-590.68393
894.69188
-162.38169
416.47426
1308.9035
79.917915
-491.81051
468.12256
-48.339506
-1316.7757
-90.17535
185.04592
0.48063507
107.10494
-10.679058
-191.78767
1242.8824
-1357.2543
-273.32707
1436.8597
-1034.5643
-14.597565
-22.605873
-43.12464
184.20526
16.944722
-13.153056
8.410681
-129.3258
-81.209838
-62.692918
142.54369
1249.1812
-81.149959
-216.02529
242.49654
-1252.7321
19.564454
5.2958441
4.6082804
28.759221
477.29232
221.5892
-57.480967
122.97567
-764.37646
2554.9862
1292.6322
811.77885
305.4657
-3741.8298
-1223.0355
-143.37422
988.11654
136.06512
-980.80757
1413.8289
138.55303
-267.14378
-558.82105
151.37852
124.41397
119.28129
-79.453474
-49.3326
-45.893917
-43.49325
-206.5349
-233.50546
-242.63207
-220.65871
1511.6956
-746.74203
1070.6135
-1760.4402
1025.8038
-1100.9553
-1118.6844
-4190.6684
2146.0907
1712.3514
1450.9102
1007.0869
350.46061
-560.67607
-260.94183
-747.84404
66.749561
53.915289
42.551805
48.674244
163.66358
-3.06434
71.999637
74.395662
-165.62045
-141.37646
-1244.7811
284.9807
2406.2849
-107.50404
106.29029
-1445.2805
973.41662
-533.90407
-448.77827
892.49519
-821.97708
-22.883665
-33.53129
-11.328492
6.4749205
140.8208
1237.4873
-1789.8584
539.18097
-127.63076
-1232.1535
685.59272
974.26234
-678.95864
-939.62649
1190.8805
-98.831294
136.71926
-854.37151
-490.41459
181.17076
164.07076
198.97949
152.66481
114.34978
157.74033
129.44407
64.415876
55.513794
57.4439
31.088874
-109.11688
-338.26532
292.81187
-511.29289
435.8332
230.01172
-460.06416
-450.89386
265.37251
240.16849
405.41621
497.71689
-732.69867
1336.6042
-863.61868
-443.92985
53.818851
52.973708
46.427588
52.701135
37.323019
-128.39652
-189.21609
120.22092
198.19776
-38.131607
-382.26243
-719.39212
736.89475
-745.30506
591.29609
518.74964
-633.27131
-207.99997
787.61811
1196.8092
-862.55819
-87.725383
-89.541117
-55.856459
-47.505169
70.94579
1449.3457
-1968.995
-47.824195
496.52747
-828.74235
201.84339
354.12119
-161.5249
-286.98687
721.28434
485.79291
49.107399
-1378.3631
-1014.2639
435.36621
469.11062
423.76026
219.4305
211.8089
165.71508
173.09883
-57.276407
-74.01902
-41.074614
-68.218248
-185.50286
-129.57494
-410.3168
482.35162
127.77704
115.24962
-219.8619
-16.745525
9.9210884
35.53706
191.14759
427.64305
-1420.4477
2091.916
495.81942
-1333.3688
-261.5731
-16.07359
-135.55859
-235.74789
199.69969
7.6381448
180.04136
-324.09846
-249.64833
376.7825
128.86708
260.35274
-46.229974
-48.915008
-50.78263
-46.33331
-585.15185
-578.30118
1164.374
1411.7561
-1192.3658
-75.512409
-73.555166
-39.191373
-32.067132
-10.949963
1468.8901
-1967.9149
51.561115
458.41356
-577.0094
216.85427
284.79298
-93.188044
-376.55183
545.09344
-34.615995
471.28549
123.9703
453.9627
-116.41869
-52.299841
-122.4372
-143.65974
-146.50631
-97.903798
-83.95675
-74.476628
-56.68388
-64.671345
-55.597055
-14.750633
-83.004078
-753.20227
749.69091
79.762135
21.494448
-82.701829
112.45479
-49.424633
-55.470815
75.141426
-220.22813
517.86149
-35.038171
-402.27635
-67.158434
206.83307
-4.1190212
-200.2928
-313.72733
243.98586
10.784992
263.36697
-210.44375
-75.708113
277.08018
-98.868422
222.50196
-28.248911
-28.332378
-30.279409
-27.706066
-545.32506
-678.16321
935.69545
1268.5474
-787.52319
-69.908781
-63.613112
-30.849992
-28.868745
-69.257449
1465.6722
-1929.5713
108.87714
424.27927
-501.46278
208.31135
278.28402
-89.121778
-364.27421
468.24876
-76.344858
59.568622
274.81631
690.19362
-156.43011
-81.591517
-153.78049
-157.3078
-155.02157
-91.423657
-92.939595
-25.455176
-10.450783
-18.174242
-5.6627157
-64.327698
-92.657776
-883.7169
863.05466
99.647818
77.992346
-46.697076
113.89951
-52.868074
-59.486278
45.150406
-69.204056
1037.1806
-399.68565
-711.43992
152.77365
-9.6257498
-28.77227
-205.6421
-324.71797
341.92933
20.635721
196.56644
-261.78792
-55.195636
293.18206
-133.75746
271.96359
-28.653384
-27.831287
-30.508291
-27.417199
-547.72261
-504.80969
494.14199
1105.7621
-441.96767
-44.429076
-36.897146
-10.930493
-13.153429
-105.02015
1455.6307
-1913.062
143.6876
418.7636
-401.13049
177.96973
255.9185
-74.516601
-314.65251
356.39895
-72.351685
-69.522794
176.68972
685.99904
-149.03189
-76.275127
-145.75742
-145.07953
-142.33093
-77.657186
-83.155916
16.119093
29.098911
24.142154
29.111652
-99.221172
-118.68196
-842.57173
831.29858
112.26988
116.90226
-43.614235
94.861217
-50.609991
-45.301333
44.663388
204.77625
675.27789
-250.71014
-434.7292
52.343889
-246.95217
-28.292852
-237.01795
-308.98642
359.22333
23.640655
191.43299
-326.03731
-66.959287
285.33312
-139.15231
355.01993
-27.130956
-26.062956
-29.617568
-25.397685
-773.40996
-632.83686
596.463
1439.3511
-715.41161
6.8419432
9.3821995
33.691968
35.921513
-156.55871
1399.5913
-1881.2541
193.18718
445.03412
-252.4815
171.42317
256.5917
-79.264118
-285.33992
189.06017
163.55054
-659.66696
-1292.9806
-30.835289
182.38964
176.01599
195.67862
205.91755
257.41962
221.92772
174.58001
102.5791
116.18064
117.87652
69.366781
-149.42226
-187.17647
-913.09752
963.08818
125.53253
161.07148
-57.052677
56.121935
-50.158195
-8.5381723
59.626015
532.07656
-1704.4057
2183.7521
946.97589
-1564.8988
-393.47738
-32.4596
-230.05446
-268.11328
298.82087
27.940457
203.86601
-488.14658
-199.41348
239.68587
-17.124837
552.86373
-22.006245
-20.686376
-26.115831
-19.059527
-926.46825
-875.33132
1220.3069
1550.9559
-1418.4305
102.83591
102.28354
119.01592
124.8239
-247.38941
1289.6322
-1820.8369
268.64973
509.94415
189.57866
57.687218
426.39228
-170.20707
12.709347
-516.17289
113.54169
129.25885
-2141.9461
188.63965
189.53617
98.31993
167.54232
329.53653
340.24485
326.99098
319.8321
-34.738785
-22.17337
25.77138
-30.360078
-289.43442
-305.26361
-1061.8898
1053.1201
200.42094
403.04497
-89.784925
-69.546675
-34.787694
98.319658
95.798503
34.046842
-2227.2016
2921.4704
1369.2402
-2123.9649
26.41832
-50.872776
-257.00551
-160.4653
142.51627
54.979651
270.84683
-828.3128
-490.93261
192.41409
250.96484
948.34716
-18.050684
-15.963691
-24.817516
-13.658142
-1756.2079
-1918.0612
1741.309
2137.6466
-1483.9418
301.08911
295.36674
335.34601
347.45187
110.25234
-1242.3578
-271.20492
206.68087
1196.6296
2153.7039
-2492.8873
-673.26231
445.24797
2530.8951
-1963.7127
-1493.2911
-492.10018
-2.9680577
1785.4861
-483.67017
-587.95864
-568.94629
323.08605
281.76558
219.90744
266.05525
113.74297
161.62463
255.56802
221.69051
-1042.8194
-239.33088
-570.46612
1440.1435
380.93642
31.53339
-200.8877
-202.13916
32.568637
132.25335
238.20363
110.30865
-2322.6585
3640.8117
1831.4802
-2894.2386
-365.71157
-183.78773
-421.85854
-127.3697
148.06458
123.58541
461.364
-1086.5747
-210.01269
316.00995
-29.741607
1070.2037
-10.43417
-15.001875
-22.666006
-11.794405
-1782.5923
394.15963
-6335.4868
3022.4491
5439.4064
-257.08904
-129.14239
-85.270325
-266.4402
-240.91617
1356.3204
-1815.6226
-1260.4734
2243.6288
-282.93655
-2913.7446
-585.35884
1563.7368
1475.4711
-571.73684
-381.87303
-496.42564
-146.0479
-146.19356
-127.28462
-154.27876
601.97946
661.5912
670.21199
549.95211
-2980.7421
2761.9488
-9761.0977
-5714.9667
6769.0941
900.17738
2663.7456
3157.9535
2203.8757
952.67869
2614.0527
-3569.1142
-1529.5911
-2120.4366
3652.4048
236.80236
-389.11521
45.409862
-93.44759
360.43906
-160.0883
-5578.9421
7559.0746
2211.6689
-3592.2513
4256.053
-1454.4754
-1638.0576
-1067.9977
-695.07464
413.44683
-274.42799
-23.242815
5.527952
262.81956
-384.12376
183.19568
-985.2123
759.50619
174.1376
179.57912
155.17532
146.82063
-150.88325
-154.54601
-145.3917
-134.3119
-3.2274577
-8.5465084
-5.3570361
-10.949862
-36.43894
1205.8459
-278.96958
-640.36314
-226.7146
-23.361082
-0.51465834
18.572516
55.57844
4.2910236
-86.05231
8.1222814
967.40055
-248.88253
157.72809
-1178.1482
66.772503
81.200291
70.38682
70.103698
55.730503
161.63877
-2.4182424
-16.076604
-57.709123
-141.16617
101.13701
-1484.3336
-176.71061
1498.2532
-29.146008
35.944246
12.811005
30.450571
11.596877
154.3447
-21.426827
59.969101
-143.88242
112.79163
806.68775
1372.106
-445.93574
-1275.033
-570.6116
-237.9347
-1910.4526
1075.591
1724.3635
-0.12823116
-651.44795
932.83156
74.581783
-296.83239
-73.54706
-1014.5745
-189.45917
-811.61538
242.74353
551.87413
415.71198
-5.2772382
231.7729
90.074003
-4.6891931
-96.478539
-215.40184
137.02564
-1287.9322
-106.05729
1264.0787
-237.00361
229.88374
-1573.3275
7079.8203
553.99718
-3586.6631
-614.55503
-1859.272
-76.339503
-119.97198
-166.90729
189.07996
13.205052
160.93249
-785.93068
-664.37823
-24.988349
855.95051
688.72701
-1519.8057
-180.46032
2276.4855
2618.5928
-639.82915
4305.8633
4692.3082
3841.6339
-3742.0363
1103.5448
-10201.314
220.64318
-90.987234
7.4388231
-226.9765
-422.37215
-1171.7007
2395.4089
1260.3319
-2061.6657
1513.9125
575.98368
25.05347
-821.65043
-1458.2023
39.985575
53.732998
45.455803
25.741565
-270.99113
248.11125
-1693.8219
-122.17148
-286.72767
332.81278
166.64149
-166.89607
687.84747
-623.5389
-79.828179
906.82576
-1083.0923
46.585276
45.244948
49.96365
49.984967
-772.02694
-2256.1696
2155.6027
612.95055
445.97729
258.85491
435.35904
362.33026
2236.9818
-668.59738
1618.7941
-2229.1671
-2741.2807
-1260.2333
1635.1943
3439.1077
615.10647
-95.599484
440.12968
196.74359
199.80206
-11.318144
-78.758827
-1.2573546
-198.65016
394.27505
-344.26215
157.11384
-611.66832
404.54101
39.653912
157.72789
4.5002199
1.5928183
-39.430518
-164.04594
239.33754
-532.41675
1159.1028
-123.68607
69.766786
55.736837
59.467107
79.774148
5.8170792
74.67763
-160.20772
184.33109
5.4042207
-110.02478
-30.709708
34.026774
-3.606133
4.6083007
-4.3189019
-438.79186
-19.183014
217.324
240.65126
158.90562
904.2555
-1206.1633
-764.56214
-449.69508
145.84843
3.4793429
-185.9006
53.620319
116.10661
257.6437
-273.67851
-175.6492
75.573829
76.049579
191.60038
51.431876
-149.60284
254.05973
-2130.4455
1424.6891
1405.4558
-745.79468
-207.97158
18.94445
349.16735
-806.90372
-157.09141
236.02726
305.02945
-470.55442
86.585019
-1439.9822
1549.5319
-885.26452
-1234.4392
1769.2379
1245.3996
-6382.6358
-4582.4406
-2258.2385
5856.8957
818.4196
1440.101
881.75144
-2033.4884
-4124.2635
-693.46458
2116.1615
-257.75926
4992.8074
-1334.5416
279.1439
-884.25071
-1275.3881
3440.5836
-225.54844
4218.5384
-48.4751
-806.78434
135.063
-1564.8697
-1933.4727
-778.48985
-393.666
-520.38336
1165.2089
216.34891
310.97623
149.12119
-393.31428
255.53006
-150.31179
375.77529
477.21693
-1903.729
-427.7963
-417.2821
-407.04629
1930.4981
-820.79055
1982.3735
-1180.7864
-569.6789
-1331.5838
1527.64
596.72732
215.83618
259.61809
248.91754
233.29937
1785.9958
916.68366
-2151.8557
997.93816
725.8437
874.2234
-438.04998
-256.65265
-413.01049
-330.81995
-730.68998
-602.62799
-580.81372
-687.96727
891.78246
255.43172
419.91734
-450.39631
81.65482
-334.8092
28.199838
-29.042032
-210.24864
-126.9911
369.25199
-63.657944
60.684726
5848.2667
5246.1261
-3332.9535
-1524.4399
-2515.7136
-3349.8129
-2563.5111
-3386.9058
913.09972
-2126.7673
2106.1139
-1103.7748
211.32656
-614.26263
-4429.5336
4465.3228
174.46118
403.99755
555.19089
-100.30551
87.093957
166.75224
-720.15896
377.52279
391.51908
18.809047
12.644417
-310.41035
-490.07172
-284.21014
-30.178092
119.38607
358.08241
804.32769
437.01082
57.88602
-176.65834
-165.31166
-178.775
-130.06685
-363.19667
680.75457
255.85483
-34.118141
421.88495
-336.8254
-247.32687
452.49949
299.44371
-210.67812
-536.16734
242.23028
150.15749
-173.87926
-179.36124
-186.39629
-136.9462
577.6556
540.13024
1055.8967
569.83024
-365.78503
-1004.47
-142.67646
592.71312
-15.056713
-37.357501
148.42564
-796.71819
261.87565
-444.71764
-1087.0538
-332.3745
1031.854
12.103565
494.39931
-265.68741
-69.578875
374.59404
-545.81241
51.670967
365.69082
-394.55459
-9.1543655
919.18516
-1628.3837
469.72723
1885.9667
21.073066
407.60704
106.30286
137.28868
-1589.0412
7.5263343
262.16965
-218.32366
-223.21195
-216.47998
-190.77134
1077.138
22.342765
38.776748
38.053874
-97.488952
-124.17579
-61.559324
-82.213222
-1319.5527
-887.32808
-210.33911
609.5603
1828.7741
-919.02493
-1429.0572
1368.9908
1153.1957
-1004.5436
-267.10157
-2880.0455
866.57143
865.72111
933.17074
-583.26583
3122.1166
-2843.0969
355.6366
506.70959
-98.452074
-291.44574
6.8152996
470.59986
-250.70071
-238.39373
11.681447
842.64802
-157.93236
37.761978
141.57231
123.56699
-987.5879
3177.1509
2334.1759
-2599.0402
569.0297
739.80559
622.27237
-7115.1424
55.682951
-44.090891
12.042835
204.53806
-39.713684
647.7169
99.661469
-1130.0346
-46.107151
310.98751
274.55265
-359.39279
1333.881
-180.21311
-100.58082
-76.394931
317.90004
39.29229
-589.82735
-627.77567
512.66421
434.79325
738.54884
-2818.1288
844.04794
611.63273
780.60164
3402.0976
-959.07402
-2755.7624
288.13523
-742.82711
-796.19374
958.107
1021.9061
-729.12712
-1629.1752
-976.21309
1251.5891
1431.7836
-850.01117
527.36345
-27.254051
-328.98255
-24.368057
-575.17583
205.87942
-138.56344
87.404151
-267.47123
112.75768
257.43355
402.06891
45.426675
-37.549538
-219.6335
-447.74035
-304.60726
95.766281
425.9955
-94.419417
1186.1758
577.78507
-48.014845
-488.13155
883.41554
-208.23005
-213.84812
-218.6326
-27.247533
-23.558621
-18.35772
-15.374746
-183.97244