/*--------------------------------*- C++ -*----------------------------------*\
  =========                 |
  \\      /  F ield         | OpenFOAM: The Open Source CFD Toolbox
   \\    /   O peration     | Website:  https://openfoam.org
    \\  /    A nd           | Version:  12
     \\/     M anipulation  |
\*---------------------------------------------------------------------------*/
FoamFile
{
    format      ascii;
    class       volVectorField;
    location    "3";
    object      U;
}
// * * * * * * * * * * * * * * * * * * * * * * * * * * * * * * * * * * * * * //

dimensions      [0 1 -1 0 0 0 0];

internalField   nonuniform List<vector> 
94133
(
(46.885499 -22.848978 -4.1944045)
(17.887649 -12.308081 -2.1012069)
(-34.991489 -3.731943 -3.8928236)
(-82.058205 -5.8847035 1.7137467)
(-70.623406 1.4019886 16.267898)
(40.480592 19.69276 -3.7552185)
(-15.298917 20.777646 -3.3552294)
(55.49552 -17.091174 -6.8080766)
(40.512011 -9.6399593 -0.79133676)
(40.788558 -1.4774618 -15.508904)
(21.961374 -0.60755797 -2.9887768)
(8.9097068 1.4643031 12.168182)
(54.268346 10.963703 -7.6366768)
(41.844126 8.9935926 -1.2398503)
(81.536786 -11.976731 -21.310317)
(85.473828 -5.0304984 1.1706134)
(83.513692 -0.6847787 -29.76897)
(89.790513 -0.46463102 -1.3796065)
(61.703594 -0.072596876 27.876017)
(87.474894 10.373346 -20.781807)
(87.239179 4.6510561 0.85875001)
(67.635563 -10.085622 20.657639)
(125.17778 -20.689556 -48.640183)
(130.44355 -5.563225 7.4870509)
(97.547776 11.094204 46.642183)
(118.78283 -0.84275997 -62.453439)
(135.48848 0.22171061 2.7121624)
(104.10514 -0.07501786 56.162027)
(125.95635 20.116581 -49.149607)
(130.8084 5.4906615 7.3960168)
(91.48102 -10.246526 47.448088)
(201.50663 -43.132661 -102.42546)
(202.26856 -12.990479 25.935847)
(148.62507 16.787012 112.66377)
(-17.241178 7.3595109 -130.09062)
(212.55519 -1.3450057 -133.81861)
(215.96711 -0.0087863294 11.01451)
(149.01974 0.34445404 113.61358)
(204.98243 41.282947 -105.67494)
(204.55863 12.393307 22.777341)
(139.67049 -15.072015 109.46343)
(365.16238 -105.06974 -184.98716)
(336.12748 -33.305547 71.583593)
(197.70055 28.216584 227.21224)
(156.42776 2.9439362 -391.02436)
(413.50302 -2.3032278 -269.47541)
(378.25956 3.6065377 41.425122)
(222.02741 -0.29532499 238.11717)
(372.5471 110.981 -194.32924)
(339.90639 29.600409 66.38315)
(200.98453 -30.094877 232.17688)
(719.3272 -260.18352 -260.24505)
(561.63635 -77.422863 209.74406)
(277.50974 47.284642 460.66086)
(799.97671 24.386852 -662.65461)
(898.31477 -7.6465016 -455.95383)
(673.22187 0.22930491 153.49531)
(324.29535 -1.1834841 475.89007)
(734.55057 277.65283 -284.1233)
(563.81451 74.565363 199.68729)
(301.80271 -22.810565 462.54296)
(1380.433 -562.43862 -114.98267)
(819.88597 -136.62029 575.04821)
(369.23152 40.060657 820.26773)
(2740.7523 55.992142 -537.55503)
(1903.0527 -17.220464 -438.42754)
(1039.0636 -10.208939 488.7408)
(414.85155 -6.5840863 867.77876)
(1418.3556 538.84623 -164.64197)
(834.65266 135.65556 555.15627)
(375.43656 -22.32166 838.85501)
(2019.7872 -799.89632 860.78619)
(857.94261 -157.4122 1261.453)
(332.87706 10.194356 1333.034)
(4285.1981 86.418279 3221.5837)
(3088.2366 -46.184259 1066.7123)
(1116.598 -13.050483 1236.9945)
(379.25217 -15.078987 1365.866)
(2174.3157 760.79721 763.07359)
(906.76166 142.49304 1220.8804)
(357.43398 -21.196383 1313.9968)
(489.7353 -33.08498 1008.2695)
(1132.7249 -329.26403 2507.7309)
(334.0812 -70.554056 2010.6973)
(123.10937 0.07623213 1776.9159)
(-1687.7513 -361.72229 9822.5426)
(803.42697 -140.509 2981.0036)
(407.56202 -62.349025 2043.3936)
(155.22815 -29.252983 1775.0001)
(1341.0938 221.03653 2360.0491)
(425.83872 14.759279 1969.736)
(162.29717 -41.148753 1738.3473)
(220.53071 9.8139106 1682.9846)
(-1083.6934 140.48941 2074.7007)
(-374.19725 -36.392615 1822.4532)
(-107.72546 -44.562472 1715.3903)
(-26495.984 -423.70416 3867.3005)
(-3196.5373 -103.22562 2025.0494)
(-536.29659 -110.16829 1824.7576)
(-116.09324 -55.205754 1756.7904)
(-773.90802 -418.0563 1911.5558)
(-268.4731 -112.31794 1864.2521)
(-70.511363 -43.764866 1757.5748)
(-185.16176 -93.126695 1459.2047)
(-429.62815 -448.84755 816.24915)
(-594.45769 -100.50529 1320.0742)
(-207.33092 -95.823254 1439.0287)
(-17673.157 -368.57123 380.82609)
(-2671.8959 -168.03493 658.82829)
(-801.8192 -170.14621 1314.9634)
(-229.71838 -78.872229 1498.8531)
(-84.798191 78.546739 635.88867)
(-476.90932 -131.25265 1410.6634)
(-161.27013 -23.184477 1521.9648)
(-302.32522 -71.105935 1064.0755)
(18.94772 -590.90558 640.10145)
(-469.07656 -199.53192 905.34552)
(-191.64195 -133.802 1091.3508)
(-16208.653 -333.19989 281.48574)
(-1371.086 -196.68977 518.75989)
(-580.42934 -220.04662 945.50177)
(-196.88514 -100.10448 1166.2614)
(680.53256 317.84053 608.13493)
(-314.66444 -53.967848 1048.3694)
(-132.394 -12.134924 1200.7987)
(-246.64495 -14.336969 773.23636)
(133.23985 -547.03488 438.47857)
(-326.15886 -259.54669 618.35591)
(-141.76483 -152.99667 778.77633)
(-15247.391 -375.95462 181.08564)
(-663.27654 -228.68287 439.0771)
(-324.5072 -258.51041 706.52574)
(-122.53978 -117.85083 863.02128)
(685.2699 268.62656 449.44715)
(-97.854348 29.585515 780.79429)
(-69.484721 -9.2227563 907.20841)
(-164.53944 20.142294 539.33528)
(211.94939 -493.71658 283.29284)
(-216.77676 -288.0401 407.65914)
(-96.773926 -159.79852 529.23311)
(-14623.117 -390.68538 122.35335)
(-231.61937 -247.09692 312.7915)
(-91.36291 -300.86513 521.57936)
(-55.295701 -136.5325 617.35715)
(736.12122 245.50334 293.73225)
(84.029155 59.189675 512.3774)
(-8.5382513 -11.783838 668.85196)
(-95.920733 37.383936 361.01233)
(277.11386 -447.17863 163.53195)
(-132.66808 -282.16467 243.2586)
(-60.399758 -160.17307 335.85962)
(-14234.68 -391.62852 88.205175)
(118.01602 -262.46452 217.30567)
(34.798218 -258.55817 313.28133)
(2.6263325 -144.69121 401.12701)
(790.59955 220.60242 178.54912)
(172.11544 27.364799 300.71199)
(48.894662 -16.943536 441.55663)
(-47.376893 46.090989 225.48447)
(308.06096 -390.16067 78.194177)
(-69.15149 -247.20579 123.0768)
(-31.693645 -153.45729 183.52572)
(-14033.977 -395.97915 53.710772)
(334.10306 -272.64478 127.68392)
(85.8091 -221.60825 167.91877)
(41.112175 -136.39311 213.77627)
(840.65515 194.92724 89.403875)
(218.16324 -3.5125184 156.10644)
(89.602698 -27.915598 240.70514)
(-12.764264 51.73189 113.91957)
(338.98456 -354.40185 10.916681)
(-29.434752 -211.99163 37.083808)
(-10.544635 -144.37211 53.143154)
(-13898.745 -394.2546 -8.1638456)
(655.70772 -299.16672 21.952504)
(122.01927 -203.12883 46.326903)
(61.05599 -131.41401 60.612942)
(888.01801 166.47315 14.698925)
(245.39432 -23.457316 42.71289)
(109.5252 -38.142914 72.3785)
(14.753811 57.530669 24.548541)
(344.21936 -373.79597 -42.495147)
(-38.968329 -221.88455 -61.569797)
(-14.112577 -146.0629 -83.825938)
(-13965.155 -379.29654 -25.420765)
(555.63905 -276.51295 -70.260684)
(92.450302 -202.31747 -88.48002)
(59.494951 -133.93251 -95.912745)
(868.17355 173.28279 -49.234686)
(239.05919 -24.170044 -82.630328)
(111.24665 -42.088318 -115.78364)
(14.926383 54.015343 -54.803852)
(317.03444 -422.64681 -127.74266)
(-73.470454 -254.46508 -162.47841)
(-27.865058 -159.88743 -208.09663)
(-14104.561 -370.67221 -72.17247)
(293.91437 -258.97855 -172.77586)
(61.9088 -221.70212 -212.22875)
(53.870915 -142.23868 -234.46613)
(813.79617 196.51141 -137.10873)
(218.33139 -7.8808976 -203.22131)
(106.37639 -40.168101 -268.37777)
(-7.9893502 50.014992 -152.20677)
(275.2828 -449.73653 -238.32189)
(-97.696735 -278.85575 -298.87323)
(-29.345995 -166.91229 -339.36139)
(-14024.098 -377.8438 -185.29983)
(119.85551 -275.59995 -315.61755)
(53.47373 -248.13084 -367.18016)
(61.349536 -156.45927 -370.78948)
(772.46353 214.50508 -257.60827)
(201.96271 3.6834103 -367.9759)
(114.51243 -54.876311 -431.92185)
(-28.63831 42.423719 -284.40462)
(225.03439 -482.23958 -380.99856)
(-96.111461 -282.99502 -491.99028)
(26.997001 -155.95055 -456.45652)
(-14683.556 -391.02786 -65.373604)
(-219.93086 -269.53295 -387.87578)
(76.021741 -295.26317 -596.15158)
(134.19107 -179.85031 -459.37307)
(747.52728 218.45911 -405.16654)
(224.75705 -26.824871 -632.16881)
(185.02936 -117.94508 -570.001)
(-21.901107 25.722101 -486.16986)
(165.76117 -499.02572 -759.30846)
(66.869895 -224.25366 -857.47584)
(280.81302 -17.286939 -436.53956)
(-15665.728 -349.7207 -250.612)
(-836.64047 -216.33517 -635.88327)
(190.98224 -305.17864 -952.89666)
(386.75 -198.49518 -352.86701)
(748.96851 185.64468 -789.12944)
(390.66621 -165.78069 -1105.8762)
(379.91288 -238.18814 -582.74553)
(65.249236 -8.0191391 -866.56707)
(-39.607227 -247.95369 -1711.8761)
(646.76789 -21.651252 -1363.4073)
(782.18649 267.6675 41.665166)
(-17420.296 -371.04578 -336.30749)
(-2237.329 -185.32856 -1214.9218)
(651.64883 -242.9804 -1436.9716)
(922.03754 -207.06589 332.55159)
(536.26928 -87.446533 -2148.4119)
(781.49494 -312.48897 -1564.9969)
(800.4965 -465.71578 -347.7082)
(368.03961 -27.878658 -1599.4043)
(1123.679 -76.262588 -3531.6877)
(1611.9319 163.78801 -1886.0278)
(2128.4507 984.08539 1038.8689)
(-22210.853 -597.54365 -7482.8846)
(-1360.94 -22.163456 -3366.8148)
(1824.7515 -221.74821 -2029.702)
(2721.9018 -299.92079 2294.6087)
(1296.5688 -309.04715 -3975.2823)
(1655.5249 -409.37315 -2151.3164)
(1809.5907 -1144.2596 73.850945)
(847.76013 60.666499 -2055.9636)
(2236.9344 -369.09951 -3302.389)
(1247.7678 -124.27811 -2269.6628)
(6376.2176 3018.9585 -1396.7947)
(-12420.232 -3728.0404 -1819.6599)
(2101.6576 140.45268 -2516.353)
(2273.9674 -3.2342376 -3574.4884)
(10883.383 -1665.8868 -3914.6164)
(2677.5795 468.32978 -3544.3797)
(1416.3698 7.497721 -2271.1746)
(4146.9364 -2323.5281 -1101.4611)
(909.12857 542.91328 -2948.134)
(1987.587 93.642045 -2492.7377)
(-7441.4739 -13993.081 -23721.122)
(-1009.6971 -8377.8094 -4178.2413)
(-134887.94 -41449.813 131149.82)
(-298.73219 538.54181 -2452.6772)
(-2561.8339 1808.7866 -2422.5909)
(-35759.039 32670.839 37901.617)
(4037.5104 -326.64005 -1309.3437)
(-1376.2552 -408.26158 -5582.8859)
(-171.54465 2806.5004 -2904.7136)
(1292.9457 1345.8102 -1400.0527)
(-106156.78 6226.9536 -7474.4675)
(-2431.9476 -2854.5142 3831.006)
(-903.01932 3338.9591 1102.1904)
(543.01881 1523.5261 863.8002)
(-1146.8334 2458.1941 3399.8182)
(2063.7459 -2962.0884 523.03706)
(-6042.4809 -396.84549 -911.80048)
(-2681.6302 1475.5059 1573.8096)
(-721.288 2071.1489 -994.97146)
(-122840.2 -8506.7565 -4005.6047)
(-1075.0162 -1617.5503 2385.4287)
(-3437.4224 3405.4028 -732.17526)
(2196.0672 1023.2717 341.58116)
(134.85044 -327.91152 1599.4669)
(611.36422 -3712.1982 52.546238)
(-8241.9 2343.268 -539.44608)
(-1904.5703 -118.91545 816.03187)
(-410.71245 2061.6097 -1857.1375)
(-124899.81 -13394.668 2796.4026)
(-746.91463 -1702.7615 1474.9104)
(4017.9018 -3282.6837 -1219.2937)
(3374.3947 769.94645 -59.358514)
(518.20797 -1421.8004 501.46921)
(-1111.0322 1973.965 453.70793)
(-11350.244 4710.7605 -4.6338032)
(-1511.4102 -554.233 524.72035)
(-165.83595 2148.3983 -1426.9346)
(-125809.12 -18185.823 6533.0401)
(-484.05464 -1748.7936 1151.729)
(4931.2569 -3733.4108 115.64056)
(4183.2386 966.99642 202.51096)
(703.69461 -1738.8381 339.06235)
(-2133.6534 2918.8004 259.26302)
(-11775.063 6803.7136 877.36279)
(-1377.2422 -710.19497 528.84816)
(135.50319 2276.2386 -1210.8388)
(-126025.46 -19142.13 8574.6479)
(-307.0428 -1713.9996 984.36887)
(5060.8088 -3568.4007 239.55576)
(4543.6831 1257.6684 525.3813)
(807.06889 -1876.1656 542.51418)
(-1236.5418 2654.5968 -454.31723)
(-12419.422 7746.1276 1393.6967)
(-1291.7226 -781.42828 681.38687)
(603.00952 2962.675 -2345.4811)
(-123972.65 -16318.883 11535)
(-397.55815 -1688.9159 747.6969)
(-131.91631 2579.0609 2024.4287)
(3927.6728 1337.006 606.93365)
(666.13902 -1300.4196 773.1098)
(1378.3179 -3692.8904 -1153.8844)
(-11229.498 6023.1292 1824.0522)
(-1345.0635 -502.8566 1137.9613)
(1668.4342 3767.6733 -4632.9722)
(-119381.28 -7521.0327 16277.558)
(-744.91633 -1296.0698 -382.25057)
(-721.79627 6447.5499 -811.32047)
(3974.9014 1652.9604 704.60845)
(556.79657 -338.89665 1019.3926)
(4162.3672 -5137.1431 -847.02973)
(-8341.9043 1940.3181 1920.2023)
(-1435.3995 178.11115 1899.3635)
(5918.6512 5879.2941 -6936.612)
(-24749.168 -7104.2363 81144.326)
(2108.3101 5565.2644 -3476.6909)
(7152.5854 5457.0025 -1111.6964)
(3838.7867 1585.8281 3427.3731)
(366.25813 181.7602 2113.8718)
(5531.8889 -5805.9099 -1435.8111)
(966.04071 698.20445 13015.105)
(-324.73077 -617.1041 2359.4694)
(9426.5635 19182.128 -5941.6739)
(12937.965 -8954.4896 22930.845)
(-5469.7802 3126.4678 7379.718)
(-11695.955 1956.5292 16540.649)
(-2006.0935 -3865.7577 9993.4426)
(-989.09252 -1996.0543 4003.4661)
(13475.487 -8156.0249 -14465.837)
(667.81042 -5684.9891 3167.2747)
(419.96246 -2541.4176 2483.117)
(5982.1742 -2964.9609 -13273.078)
(165.05478 -717.38125 866.16896)
(1607.5716 -526.14553 -3458.0188)
(1239.7279 -148.66244 -1791.4331)
(1229.1113 -164.3374 -3074.7972)
(1160.7663 -91.016496 -2012.5687)
(3915.549 1451.6744 -2406.9871)
(2874.7866 -871.02392 -3752.2795)
(2375.8262 -852.15154 -2901.4024)
(-1537.9971 -4108.763 2794.3469)
(2387.8036 -23.437885 -1971.34)
(2353.0841 -569.77013 -2854.1272)
(-155471.24 -56543.203 160326.63)
(-447.70429 149.74908 -1608.5153)
(10801.465 -280.91795 -817.69989)
(4459.0537 -4475.1887 -6033.3546)
(-144897.38 55304.697 165696.08)
(2842.4374 44.655336 -2302.7337)
(-29953.935 34308.376 28079.34)
(3100.4395 2386.2843 -2632.4971)
(-77664.063 -8916.0897 -7946.2825)
(-130.4003 -560.84406 -2189.511)
(5999.0279 489.83276 -1803.6866)
(5713.5011 -2923.0286 -379.65573)
(-37585.471 27426.931 9763.8771)
(2953.2139 -1083.4403 -2283.6467)
(1329.094 362.06798 -2106.4838)
(1036.9042 1042.337 -3039.5124)
(1015.0631 -202.19742 -2393.535)
(3895.5675 -49.424935 -1971.8594)
(-288.23664 -2048.9936 -2181.1295)
(791.17734 306.43085 -1177.3169)
(-10341.41 -206.0467 -3439.8483)
(3768.6682 -1420.3882 -1832.1492)
(1064.4448 -439.25019 -2443.9535)
(1508.0457 -304.79754 -2165.8517)
(-342.00019 -2299.6821 -3429.7038)
(2912.8365 -274.44314 -3495.0555)
(-25235.606 -629.0611 -11607.684)
(2574.4193 -495.66625 -2352.257)
(22660.865 -4290.3735 19322.547)
(-6843.47 13917.289 13129.816)
(2763.9173 609.21106 10833.241)
(12214.621 -7913.7759 -21289.731)
(-33151.105 16686.833 -13721.091)
(-5205.8007 -6241.2916 4103.8905)
(-1356.8235 -3178.6262 4315.5328)
(332.95265 -6528.6856 4766.8243)
(-282.91138 -3588.3118 3296.9242)
(-7605.36 -10164.585 4506.1512)
(-1147.354 -7065.5102 3572.2406)
(-592.67816 -4726.2477 1650.2956)
(9606.6845 -1816.4106 -30672.964)
(-23215.608 15985.584 -1969.9959)
(-66130.663 242448.2 -14802.952)
(957.83853 -256.27289 -3325.9474)
(1311.446 10.385816 -2330.2905)
(1554.2457 -549.25702 -3414.8278)
(1692.5459 -55.409487 -2565.1418)
(1471.7986 124.43175 -1932.6271)
(1847.9226 693.6897 -377.40083)
(1797.7106 159.17195 -2450.0318)
(3309.3464 1312.2151 -1396.9776)
(1046.0058 -212.68851 -3743.9425)
(-4037.7847 8999.4629 -2643.3483)
(-752.39559 1015.7931 -3354.036)
(1930.6936 -869.73629 -3257.3322)
(-15234.777 -4390.0653 14397.759)
(2507.8295 332.18388 -3054.7588)
(2763.4292 123.93228 2573.6527)
(4865.9109 2558.0279 331.54988)
(8654.8111 536.25301 3977.2757)
(-3265.6631 27.499662 -2943.7189)
(274.35693 -2285.084 -2523.2835)
(1134.8266 -984.71828 -4600.6157)
(-51357.382 2555.0256 60814.429)
(1651.757 12.467808 -2626.4685)
(-34526.851 25475.046 23367.097)
(1386.2894 951.07751 -3766.313)
(1117.8167 -397.51934 3005.6746)
(2081.3027 -1154.6328 673.77363)
(9273.9975 -1392.7971 2352.2014)
(-6280.0786 -7616.9541 21056.028)
(4310.6515 -2193.7327 138.5612)
(1533.055 -339.63223 -2625.7678)
(585.16372 222.08502 -2593.1425)
(1173.6419 -86.198699 -2469.3574)
(1966.2971 63.852104 -3934.7354)
(1872.4153 -103.74876 -2988.4583)
(752.286 562.16071 -2787.5612)
(1506.598 14.736334 -2964.9341)
(1815.3276 -888.04375 -554.2299)
(1299.4834 -470.01322 -2205.2446)
(935.75308 -342.58286 -1154.7065)
(1974.8164 -137.91502 -2644.2978)
(3152.4203 -1326.0598 -1313.2477)
(1557.799 -579.56294 -2992.4635)
(1361.1168 -208.8389 -1802.5626)
(1216.1079 -165.4976 -2026.0471)
(2376.5024 146.33526 -3159.4806)
(1956.9308 -6.0899544 -3584.5806)
(1743.8633 127.36925 -2731.2374)
(-2159.2943 -1019.4119 -5455.948)
(548.4434 591.75647 -2308.4268)
(44.80245 832.03005 -3123.7102)
(5150.3419 1313.218 -2305.8657)
(2327.2907 -86.178752 -3611.4712)
(6217.2388 -597.00265 862.35921)
(-2650.5587 -1187.714 -9532.7173)
(1902.8503 -3363.9924 -4396.2655)
(-1650.7658 723.17108 -3538.6081)
(-49983.654 5035.8927 8149.8325)
(1947.9576 -10.417461 -3644.2504)
(2713.8562 250.40739 -3752.9885)
(2207.0482 -140.71685 -3607.4417)
(559.77188 -353.02241 -2799.7938)
(133.80006 749.86217 -3259.7005)
(4370.9285 -491.53565 -1894.7252)
(1202.3936 -1056.4105 -2585.5773)
(5524.3633 -1132.2204 -278.48219)
(2485.4599 -90.978263 -3363.4736)
(4827.4993 -1286.6903 -1564.7245)
(-1150.9997 1046.5492 -3320.1263)
(-25837.605 16556.645 2875.4823)
(1180.7399 -1122.0746 -2872.7624)
(2984.3503 1217.8039 -4265.2207)
(-12078.39 29835.51 -115873.42)
(-11721.462 -6899.5942 45763.851)
(5415.9193 -1795.0385 -791.29464)
(-7925.3486 -6040.5894 3391.0027)
(6381.1503 -6889.3575 1441.058)
(-449076.33 -114426.76 588034.21)
(7914.5625 5129.9569 -2352.458)
(2660.7816 -1100.1391 -3439.2522)
(2577.5651 -396.50715 -2822.4506)
(1213.3711 -250.83777 -1989.5697)
(1246.8857 -791.90982 -2520.4947)
(1508.6026 -481.56067 -1972.6814)
(2265.4134 -339.48733 -2398.1978)
(667.15615 -12.145707 -2106.7354)
(-10135.776 179.04449 -4370.1163)
(1388.3738 -207.35145 -2810.6826)
(1010.6487 191.12309 -2151.0508)
(-319.20714 -3476.3812 -3083.1236)
(-7062.745 -1463.6769 1639.854)
(3056.4383 -1018.1698 -2374.075)
(-424985.6 -201102.98 567428.65)
(-1949.9959 438.69211 -1428.001)
(2908.0477 -303.94643 -1263.5703)
(-171525.15 72028.913 5218.5868)
(-28.495703 2170.7613 418.82107)
(-100898.71 32412.09 107362.45)
(-3307.8584 -4099.1814 3639.3552)
(-5327.5527 1924.1495 4880.3883)
(-1999.0972 -149.50934 -1963.276)
(6861.6085 276.20258 -651.00076)
(-154.9163 2895.7643 1275.1582)
(183.00093 -4582.8831 2373.6676)
(-4211.9107 6307.6139 2191.0203)
(-1505.5428 3067.1265 3816.4651)
(-2936.0717 3054.3836 2279.6046)
(-1219.9418 -1356.5579 -2932.9375)
(834.17033 320.37953 -980.3359)
(2253.1022 -2168.5155 460.18626)
(2978.0649 -1744.7919 -1061.0449)
(1018.9467 218.5219 -17.190656)
(283.23964 1877.2937 -3524.4066)
(2001.549 -470.81493 -1778.7808)
(-2968.5792 -1046.5974 -128.34084)
(-2771.9611 1834.524 1192.6612)
(5460.5331 -2042.3741 -1082.6792)
(9012.6243 11023.898 -3757.7802)
(-271122.73 120113.81 -369475.18)
(18917.685 -9199.2879 25843.196)
(-246933.01 -267133.42 169561.24)
(-96819.733 66084.819 -74947.894)
(-5747.6035 18655.219 -16192.737)
(-80243.062 -55393.43 40702.343)
(-2157.3882 -2027.0062 9755.9628)
(6638.2777 -19714.957 4350.5343)
(1546.0363 -7899.8044 4901.643)
(-24242.779 29727.355 -6640.7978)
(-9597.0604 -7217.3828 4332.1322)
(-177846.1 319182.39 -79176.539)
(-1394.9547 -6115.6754 1616.526)
(504.96476 -3152.1836 2572.8547)
(451.8002 -3487.8977 1845.0847)
(9333.6618 -3419.8626 -9105.1763)
(-12203.891 17409.648 -10993.144)
(-5344.314 -30723.388 -2520.9907)
(-36186.259 -26948.931 -7562.9755)
(-710.75744 -8734.4531 1256.8267)
(-6528.3826 -544.6156 -148.8453)
(813.62152 -205.86034 -2471.5063)
(1045.3541 144.27003 -2105.4632)
(1127.315 -222.96076 -2308.7199)
(1215.5866 -114.67791 -2463.54)
(750.02998 906.93907 -2644.0991)
(1161.1956 301.70043 -2408.2479)
(779.19307 -156.93519 -2435.179)
(143.96457 238.89892 -2381.3261)
(469.50251 639.57093 -2510.7277)
(803.04925 265.94307 -2402.5577)
(300.88044 -216.48509 -2474.6226)
(2054.9004 112.35545 -3186.6298)
(1111.2635 152.10075 -2309.3931)
(1542.0495 409.71438 -1756.1185)
(2006.5943 290.51448 -3263.2876)
(617.6874 872.97473 -3097.0447)
(2469.0901 519.40413 -3604.0275)
(1632.7027 -34.451847 -3754.7416)
(3010.3307 -1892.6423 -12415.883)
(-219.65789 494.08738 -3355.9741)
(1866.6207 750.58336 -4514.7967)
(270.98089 -2413.3162 -6572.1915)
(3944.7436 -1465.2301 522.91841)
(3704.8771 -551.11212 -2625.9821)
(5079.5042 -847.14402 -582.6441)
(2253.5787 25.828005 -1463.9165)
(5006.8752 -1371.6041 -1336.7115)
(2438.9999 -214.6005 -1628.1152)
(3111.1722 -1583.2108 1391.2233)
(2535.0823 88.633978 355.92584)
(1031.3159 70.505651 -1480.8452)
(1742.4165 589.36318 -1611.3182)
(-4081.9953 2748.0845 -7091.1626)
(1567.1012 575.60536 -1538.9173)
(1249.3921 -698.2556 2223.6553)
(1757.7399 277.0956 -595.50106)
(9281.3092 22307.834 16380.225)
(6766.6584 1337.1551 -584.95495)
(-5232.0674 542.51407 39943.465)
(14716.651 -9066.1391 21265.275)
(8109.0265 14524.111 14140.173)
(9447.6764 283.09088 -7801.1175)
(-302286.56 -60313.195 578408.37)
(-1206.3706 18659.465 44913.356)
(-160732.72 -51866.759 367026.96)
(-10603.674 -17680.897 -4254.0583)
(-1057171.2 675237.82 2375000.5)
(3398.4452 -6550.5164 -4930.3668)
(-841763.71 -332029.82 1695767.7)
(-43815.68 5155.138 119733.02)
(3023.7613 271.90084 -252.99443)
(4017.5061 -82.018175 -734.15811)
(2291.5324 -31.251342 -2829.8064)
(2070.8902 120.88173 -1901.7618)
(1821.5668 288.50337 -1928.982)
(2685.3943 -773.76161 -1577.6386)
(2996.5414 -168.05438 18.774453)
(1317.4989 -31.467374 -2012.5149)
(1998.3469 -1411.0763 -1073.1277)
(2434.522 -950.1774 -1306.1003)
(-3084.0196 -681.57826 3931.0107)
(-30041.867 52400.061 -113708.27)
(-35699.511 6926.468 46445.517)
(-35135.672 -17167.892 45744.655)
(-1109574.2 -307459 2140963.9)
(9129.2486 8294.8892 -2031.0208)
(-229353.77 -482179.61 1084618.1)
(1354.1129 -290.77369 -2507.0301)
(1867.3269 -96.502361 -2696.686)
(1322.9569 -172.41048 -1970.0494)
(1193.0712 -447.25172 -2446.0694)
(1707.7587 43.224202 -2494.2233)
(1218.9627 -778.5951 -2278.3805)
(1088.0446 -96.646506 -2444.6557)
(1187.8986 -379.426 -2229.4852)
(1535.1853 -11.676775 -3680.3272)
(394.11089 -323.03235 -3083.5093)
(1589.8039 62.923454 -2616.2254)
(345.90782 67.502371 -2634.6175)
(816.82889 -336.00316 -2157.3117)
(959.42213 -105.71817 -2411.7548)
(867.78842 -1218.641 -1589.6397)
(1188.6194 -273.22415 -2081.966)
(505.07016 -376.74959 -1991.8354)
(2350.0471 -1555.5237 -4003.7304)
(987.26073 -449.9026 -2571.283)
(2077.9235 -1559.7696 -1544.3599)
(1619.3222 151.23793 -2502.1364)
(3216.9038 1050.4352 -13784.198)
(4811.0957 8404.9203 7996.8835)
(-5954.3911 16075.195 13530.418)
(-15830.605 16288.045 4848.5714)
(-15094.009 4507.8295 4202.3977)
(4911.096 7754.1253 7446.8334)
(-9799.1127 9637.0175 13792.739)
(-3559.8766 2898.602 3985.3534)
(-2186.7896 -6960.1906 4944.802)
(232.30528 -5541.4937 2628.444)
(-5026.0592 -5799.8265 1821.9185)
(426.75438 -2906.5329 2271.7303)
(-3434.3844 -8493.383 5443.4587)
(-136.75654 -4607.5785 2455.7296)
(-1428.3185 -4902.1936 1747.6465)
(-7285.0447 11316.974 -11183.795)
(-29112.368 1584.4279 -20007.057)
(-61662.475 151672.08 -52960.098)
(-189996.6 153659.75 -32677.995)
(-44815.23 72333.626 -29491.521)
(684.24427 2545.2935 -5384.7407)
(-80509.217 155178.79 -11154.437)
(-70647.937 19246.878 -19864.674)
(-5232.0968 -764.76886 235.47484)
(50.36329 -13.423559 -2.5501609)
(44.734452 -9.6872496 -0.62187987)
(-26.21207 -11.976841 -9.6826954)
(41.36915 -2.8808709 -9.4691018)
(20.671458 -18.118695 -3.5837385)
(-26.484586 -7.2250199 -5.0593189)
(-34.685375 -3.9593006 0.44410949)
(52.961038 -21.457371 -11.594191)
(37.90939 -10.198327 -2.838496)
(41.409475 -3.5946155 -10.725751)
(19.872612 -2.8331473 -5.4811053)
(-39.379381 -2.7133605 2.0614566)
(-75.516405 1.0031922 15.721897)
(14.085482 -13.464433 -0.28770018)
(18.136863 29.260565 4.6307166)
(-2.8804857 -4.4391581 -2.589488)
(-3.9087443 0.78010812 4.6784451)
(-82.014788 18.004577 17.747644)
(-8.2251661 11.6159 10.148349)
(-11.523769 -1.5505571 1.6301438)
(27.731319 12.668905 -3.4707375)
(37.31812 -1.9468793 -11.190277)
(46.413973 8.871202 -6.4428672)
(-66.705308 -5.9110012 0.0053170227)
(28.216036 7.6412099 -2.81046)
(-22.096463 10.110804 -0.66464673)
(30.771568 -1.5876201 -12.718795)
(3.8320712 0.20404624 -6.0637395)
(52.764832 8.1943012 -6.1759554)
(37.459907 7.5247161 -4.0015176)
(-30.325329 0.87306384 11.741501)
(-50.289205 10.992945 0.86056427)
(-19.601016 -21.566418 9.4495782)
(-20.457802 1.2403865 -3.5058114)
(-12.026869 0.43041181 4.3866696)
(21.200401 7.6374745 -2.409096)
(1.0592595 -10.754257 3.5236067)
(-16.989224 1.7920941 8.8397183)
(24.167623 -18.805161 5.5231616)
(10.372617 10.026951 -1.417069)
(48.914884 15.873762 -4.5445002)
(42.209263 9.4111596 -3.2451573)
(28.923102 10.443643 -2.0835759)
(12.780446 -21.157466 8.1132922)
(54.688981 -12.401849 -3.7414281)
(70.65406 -18.523767 -15.443403)
(74.060792 -8.2940324 -4.9292699)
(50.457931 -9.0924874 -1.1459659)
(71.427951 -9.8783103 1.8811304)
(46.441203 -21.414601 -6.1272874)
(46.532154 -2.9696133 -11.919051)
(62.316086 -13.806616 -18.205111)
(72.24077 -0.97213928 -26.138945)
(49.830448 -9.2245851 -3.4944496)
(50.182213 -3.2299007 -12.85125)
(39.789197 -2.6481617 -5.8405395)
(73.557427 -11.695105 -16.581312)
(78.1524 -7.3815981 -5.4828779)
(79.24323 -2.0878781 -22.951632)
(81.811741 -1.7492153 -8.4382883)
(26.920781 16.61438 6.5916362)
(29.266901 -3.4291665 -2.6989751)
(16.715434 0.23323337 7.0611546)
(74.745502 -5.7689264 0.41944608)
(57.981451 9.2151135 15.167669)
(78.476502 -1.2054077 -1.2909374)
(55.96729 0.4312986 18.6866)
(10.056242 7.3726221 10.444808)
(50.25027 -0.36681731 20.852132)
(43.009133 -2.1939631 -13.803273)
(55.789206 6.9490548 -6.30991)
(66.454788 0.098130126 -29.439007)
(71.331155 6.5768512 -20.933236)
(16.543362 0.087150892 7.3320837)
(40.266156 6.2170257 -1.734891)
(17.119284 -4.8219808 6.9439504)
(78.001305 -1.034561 -2.0054358)
(56.469813 -0.25050664 18.435093)
(77.8319 3.8001657 -0.54886545)
(54.888549 0.44017856 17.040243)
(16.417102 -16.611497 11.227147)
(44.100811 -2.3257802 22.442547)
(49.668244 -7.9784643 19.619404)
(50.106413 16.726168 -8.9853128)
(63.961701 11.796364 -18.81438)
(50.522514 8.7690081 -3.3268818)
(77.509487 9.3408224 -16.762574)
(79.778971 6.8238768 -5.8560741)
(22.266442 -17.289647 7.8072905)
(76.240077 4.8864161 0.17643856)
(57.659395 -2.6623844 14.792467)
(60.607323 -12.668665 13.413267)
(93.675321 -18.067196 -40.541893)
(77.757789 -17.766641 -19.095571)
(85.543851 -7.0432617 -5.2686238)
(101.75411 -17.092006 -35.777293)
(116.95007 -8.9129576 -7.9516752)
(82.950113 -7.8462604 1.9556047)
(114.93592 -5.1344965 6.0885636)
(97.277763 7.1173676 29.762651)
(67.906041 -13.394071 -23.548804)
(80.085871 -2.4812785 -32.089041)
(103.38313 -19.127165 -45.08274)
(104.9246 -5.7640706 -60.305925)
(88.244126 -7.0847724 -6.5419616)
(87.979776 -2.7146711 -27.962737)
(92.692147 -2.0039231 -9.6461842)
(113.62217 -17.080016 -39.621613)
(120.66431 -8.1346892 -9.74846)
(115.07304 -4.7749821 -49.515602)
(125.15507 -3.0774521 -14.225769)
(67.924702 9.5225437 19.166423)
(89.940475 -1.4893708 -0.95198999)
(70.841263 0.64836572 22.010156)
(118.35564 -4.9063788 4.9082613)
(98.863317 4.649031 35.997057)
(122.41963 -2.0668375 1.7827872)
(102.89852 0.8204455 38.001268)
(63.12347 -1.8130532 26.424465)
(89.854783 9.7401571 39.028778)
(94.386859 2.0439617 48.306768)
(73.454301 -0.71098094 -35.737147)
(80.925437 7.6817072 -27.566278)
(91.348842 -0.76494316 -64.46944)
(113.99014 15.277521 -53.561593)
(62.188202 -9.0842464 25.096936)
(94.820764 0.13895936 48.567019)
(92.635932 -6.3626379 44.229863)
(78.407718 10.956809 -22.971296)
(102.73908 19.147728 -47.502274)
(90.254664 6.1553993 -6.7482764)
(113.70819 16.641028 -40.084901)
(120.75468 7.8093509 -9.4830912)
(70.946343 -2.134262 19.601812)
(118.44006 4.7359743 5.0184773)
(99.071037 -4.6164836 36.498581)
(89.219963 -10.360858 39.297357)
(102.51923 -20.02532 -49.320011)
(139.32515 -32.923714 -86.197226)
(110.06777 -18.229806 -43.042683)
(128.60863 -10.305821 -8.1622957)
(164.03312 -44.910772 -75.186761)
(176.8423 -18.09046 -7.502161)
(125.90704 -5.6558809 8.5927257)
(106.05038 8.0972665 37.203077)
(172.15179 -9.7210178 21.651121)
(142.13082 13.755361 74.839539)
(117.62446 11.50812 64.003453)
(114.45183 -22.891301 -55.702564)
(115.5513 -7.0959368 -74.12788)
(160.44285 -41.402771 -100.32237)
(174.1248 -12.403836 -131.74559)
(108.27727 6.1036892 43.726742)
(135.97564 -2.2004272 3.8869734)
(112.82028 0.96502228 45.593198)
(179.45752 -10.621336 19.397423)
(141.35352 5.6275504 79.50032)
(188.07089 -5.7473982 8.7578019)
(149.7849 1.6113582 79.261541)
(104.33754 1.548977 56.143145)
(121.77192 14.569791 84.631515)
(132.34213 2.7963187 94.918385)
(101.15273 -1.0898468 -77.694835)
(124.37623 19.150265 -65.846121)
(-77.104993 15.447341 -119.83859)
(168.91585 -1.0162904 -134.04684)
(174.62913 30.569627 -117.93623)
(100.93065 -7.2720818 52.61512)
(134.47476 0.39819296 94.660145)
(133.14049 -5.8320484 93.850628)
(114.75858 23.221974 -58.803329)
(173.47537 39.098195 -107.20694)
(133.19382 9.2413407 -10.450326)
(179.92313 33.314879 -87.229893)
(184.94805 15.816497 -14.331932)
(159.76594 9.5268379 -1.1121923)
(109.13211 -4.257984 42.858198)
(181.6599 9.9079039 17.173107)
(143.89095 -5.8175886 79.469746)
(162.40449 8.8489895 22.335605)
(129.90785 -13.041189 90.55541)
(164.70466 -41.362297 -103.75938)
(260.93615 -99.379097 -175.15331)
(187.96434 -54.402807 -89.618372)
(199.89919 -20.854916 -6.2272264)
(287.34339 -96.195471 -138.72169)
(295.84309 -40.189385 5.7512358)
(194.27753 -12.164178 29.117719)
(145.56197 9.7013651 86.718994)
(283.01088 -24.279184 62.083881)
(203.9952 23.162343 167.0698)
(131.94293 9.7802855 89.312327)
(164.31393 21.388753 159.8626)
(189.59335 -47.005022 -122.07395)
(12.737084 13.755318 -107.64891)
(201.40835 -16.740815 -161.69223)
(307.12859 -103.91241 -209.85998)
(166.43912 2.2896591 -316.60303)
(339.23563 -35.864573 -282.67021)
(143.67962 3.6733022 113.68214)
(180.02674 23.899177 189.80397)
(199.07314 3.6239942 198.11665)
(194.95344 -1.2690857 -166.24434)
(200.95608 36.779454 -145.19804)
(75.640898 -4.1589109 -335.22509)
(329.65275 -4.5657646 -293.18428)
(328.06899 78.099166 -243.26978)
(145.1035 -6.9618735 113.69142)
(200.4384 -0.69837618 198.36431)
(186.02246 -10.479324 197.87104)
(201.03633 47.888459 -132.06477)
(310.37381 103.07376 -216.05128)
(208.67493 19.198086 -14.667403)
(183.13999 11.908533 -1.6128468)
(315.66147 85.541468 -167.48767)
(310.83224 37.750748 -11.375174)
(261.47419 28.95901 18.863139)
(159.12144 -6.3631119 95.972159)