/*--------------------------------*- C++ -*----------------------------------*\
  =========                 |
  \\      /  F ield         | OpenFOAM: The Open Source CFD Toolbox
   \\    /   O peration     | Website:  https://openfoam.org
    \\  /    A nd           | Version:  12
     \\/     M anipulation  |
\*---------------------------------------------------------------------------*/
FoamFile
{
    format      ascii;
    class       volScalarField;
    location    "3";
    object      p;
}
// * * * * * * * * * * * * * * * * * * * * * * * * * * * * * * * * * * * * * //

dimensions      [0 2 -2 0 0 0 0];

internalField   nonuniform List<scalar> 
364563
(
-694.79875
-546.84459
-428.76807
-349.06103
-287.90446
-237.38871
-194.12115
-156.16685
-122.26998
-91.552354
-63.375522
-37.260292
-12.836719
10.185518
32.039541
52.91578
72.973745
92.348224
111.15513
129.49611
147.46186
165.13569
182.59436
199.91026
217.15267
234.38966
251.68955
269.12238
286.76133
304.68422
322.97534
341.72758
361.04499
381.04607
401.86799
423.6721
446.65149
471.04152
497.13481
525.30245
556.02518
589.94169
627.92788
671.23383
721.73848
782.48661
858.98048
962.54719
1118.8033
1397.2138
-694.82093
-546.85817
-428.77843
-349.07016
-287.91261
-237.39623
-194.12793
-156.17311
-122.27577
-91.557702
-63.380528
-37.264793
-12.840848
10.181888
32.036281
52.913048
72.971364
92.346132
111.15332
129.4945
147.46066
165.13479
182.59375
199.90981
217.15232
234.3894
251.68938
269.12233
286.76139
304.68442
322.97569
341.72809
361.04566
381.04693
401.86905
423.67336
446.65298
471.04327
497.13682
525.30475
556.0278
589.94465
627.93123
671.2376
721.74275
782.49148
858.98608
962.55367
1118.811
1397.2231
-694.84678
-546.87644
-428.79283
-349.08247
-287.92345
-237.40586
-194.13648
-156.18073
-122.28261
-91.563822
-63.385903
-37.269385
-12.844654
10.178871
32.034095
52.911682
72.970714
92.34604
111.15371
129.49546
147.46224
165.13698
182.59643
199.91284
217.15563
234.39294
251.69317
269.12639
286.76576
304.68909
322.98069
341.73342
361.05135
381.053
401.87551
423.68025
446.66032
471.05108
497.14514
525.31361
556.03723
589.9547
627.94195
671.24906
721.75503
782.50466
859.00025
962.56896
1118.8275
1397.2411
-694.87912
-546.90056
-428.81247
-349.09945
-287.93849
-237.41928
-194.14847
-156.19148
-122.29225
-91.572419
-63.393431
-37.275804
-12.84996
10.17469
32.031063
52.90978
72.969824
92.346007
111.15447
129.49703
147.46468
165.14025
182.60039
199.91736
217.16061
234.39835
251.69902
269.13268
286.77251
304.69633
322.98843
341.74167
361.06013
381.06233
401.88543
423.69079
446.6715
471.06295
497.15772
525.32693
556.05135
589.96966
627.95781
671.26592
721.77296
782.52378
859.02065
962.59076
1118.8508
1397.2662
-694.91629
-546.92943
-428.83657
-349.12058
-287.95738
-237.43627
-194.1638
-156.20529
-122.30469
-91.583522
-63.403182
-37.284176
-12.856944
10.169101
32.02688
52.906973
72.968293
92.345622
111.15515
129.49878
147.46751
165.14409
182.60514
199.92289
217.16683
234.40522
251.70652
269.14083
286.78131
304.70578
322.99853
341.75246
361.07162
381.07454
401.89838
423.70452
446.68604
471.07832
497.17396
525.34408
556.06944
589.98874
627.97796
671.2872
721.79549
782.54765
859.04598
962.61766
1118.8794
1397.2967
-694.95769
-546.96257
-428.86484
-349.14569
-287.98006
-237.45688
-194.18255
-156.22233
-122.3201
-91.59736
-63.415429
-37.294812
-12.865963
10.161701
32.021099
52.902782
72.965613
92.34435
111.15521
129.50015
147.47015
165.14796
182.61013
199.92889
217.17377
234.41303
251.71519
269.15032
286.79163
304.71692
323.0105
341.76525
361.08526
381.08904
401.91377
423.72081
446.70325
471.09648
497.19309
525.3642
556.09059
590.01096
628.0013
671.31176
721.82135
782.57493
859.07479
962.64812
1118.9117
1397.3311
-695.00314
-546.99985
-428.8972
-349.17481
-288.00665
-237.48127
-194.20493
-156.24283
-122.33879
-91.614263
-63.430539
-37.308115
-12.877454
10.152022
32.013226
52.896689
72.961242
92.341626
111.15407
129.50054
147.47204
165.15127
182.61478
199.93479
217.18083
234.4212
251.72441
269.16057
286.80288
304.72915
323.02371
341.77943
361.10041
381.10517
401.93088
423.73891
446.72235
471.11658
497.2142
525.38633
556.11376
590.03521
628.02668
671.33833
721.84921
782.6042
859.1056
962.68062
1118.946
1397.3677
-695.05267
-547.04133
-428.93377
-349.20809
-288.03732
-237.50966
-194.23122
-156.26711
-122.3611
-91.634619
-63.448935
-37.32454
-12.891901
10.139553
32.00273
52.888148
72.954616
92.33686
111.15111
129.49933
147.47253
165.1534
182.61846
199.93995
217.18737
234.42906
251.73352
269.1709
286.81437
304.74179
323.03745
341.79427
361.11632
381.12215
401.94891
423.75797
446.74243
471.13767
497.23628
525.40941
556.13783
590.0603
628.05283
671.3656
721.87771
782.63404
859.13693
962.71364
1118.981
1397.4049
-695.10644
-547.0872
-428.97476
-349.24578
-288.07236
-237.54236
-194.26172
-156.2955
-122.38742
-91.658854
-63.471079
-37.344578
-12.909821
10.123757
31.989058
52.87659
72.94515
92.329448
111.14571
129.49589
147.471
165.1537
182.62052
199.94368
217.19269
234.43589
251.7418
269.18056
286.82535
304.75405
323.05095
341.80895
361.13216
381.13911
401.96695
423.77705
446.76252
471.15872
497.25826
525.4323
556.16163
590.08502
628.07849
671.39228
721.9055
782.66307
859.16737
962.74573
1119.015
1397.4414
-695.1647
-547.13772
-429.02046
-349.28818
-288.11209
-237.5797
-194.29682
-156.32841
-122.41816
-91.687424
-63.497457
-37.368741
-12.931752
10.104073
31.971632
52.861424
72.932234
92.318759
111.13721
129.48954
147.46674
165.15146
182.62023
199.94524
217.19603
234.44092
251.74844
269.18873
286.83499
304.76508
323.06331
341.82259
361.14701
381.15509
401.98401
423.79513
446.78154
471.17863
497.27901
525.45384
556.18394
590.10811
628.10239
671.41705
721.93124
782.68994
859.19557
962.77553
1119.0467
1397.4755
-695.22774
-547.19321
-429.0712
-349.33564
-288.15686
-237.62206
-194.3369
-156.36626
-122.45378
-91.720802
-63.528568
-37.397555
-12.958242
10.079933
31.949863
52.842041
72.915239
92.304141
111.12494
129.47958
147.45903
165.14594
182.61682
199.94386
217.19658
234.44331
251.75259
269.19455
286.8424
304.77398
323.07363
341.83423
361.15987
381.16909
401.99906
423.81112
446.7984
471.19626
497.29735
525.47283
556.20356
590.12834
628.12328
671.43865
721.95367
782.71337
859.22023
962.80172
1119.0748
1397.5061
-695.29588
-547.25401
-429.12733
-349.38852
-288.20706
-237.66984
-194.38237
-156.40947
-122.49473
-91.759469
-63.564918
-37.431551
-12.989844
10.050762
31.923155
52.817821
72.893522
92.284925
111.10821
129.46529
147.44713
165.13637
182.60949
199.93869
217.19348
234.4422
251.75336
269.1971
286.84663
304.77978
323.08088
341.84283
361.1697
381.18003
402.01098
423.82391
446.81194
471.21045
497.3121
525.48809
556.21927
590.14451
628.13992
671.45586
721.97157
782.73214
859.24012
962.8231
1119.098
1397.5319
-695.36943
-547.32044
-429.1892
-349.44719
-288.26306
-237.72342
-194.43364
-156.45847
-122.54146
-91.803899
-63.607005
-37.471248
-13.027103
10.01599
31.890914
52.788148
72.866439
92.260437
111.0863
129.44593
147.43027
165.12194
182.59742
199.92889
217.18587
234.43667
251.74981
269.19542
286.8467
304.78147
323.08406
341.84734
361.17542
381.1868
402.01866
423.83236
446.82102
471.22004
497.32211
525.49843
556.2299
590.15542
628.15117
671.46751
721.98377
782.74509
859.25411
962.8385
1119.1153
1397.5517
-695.44867
-547.39282
-429.25713
-349.51197
-288.32523
-237.78319
-194.49112
-156.51369
-122.59441
-91.854551
-63.655308
-37.517149
-13.070543
9.9750683
31.852566
52.752418
72.833356
92.230014
111.05853
129.42078
147.40769
165.10187
182.57978
199.91362
217.17286
234.42583
251.74102
269.18856
286.84162
304.77803
323.0821
341.8467
361.17593
381.18829
402.02097
423.83533
446.8245
471.2239
497.32623
525.50273
556.23434
590.15999
628.1559
671.47251
721.98919
782.75116
859.26113
962.84687
1119.1255
1397.5644
-695.53388
-547.47143
-429.33143
-349.5832
-288.39389
-237.84949
-194.55517
-156.57552
-122.654
-91.911854
-63.71028
-37.569726
-13.12066
9.9274786
31.807565
52.710057
72.793671
92.193019
111.02422
129.38913
147.37865
165.07539
182.5558
199.89204
217.15361
234.40878
251.72607
269.17555
286.83041
304.76846
323.07398
341.83986
361.17017
381.18343
402.01683
423.83174
446.8213
471.22095
497.32341
525.49995
556.23155
590.15718
628.15313
671.46988
721.98686
782.74938
859.26022
962.84725
1119.1277
1397.5691
-695.62526
-547.5565
-429.41235
-349.66115
-288.46934
-237.92266
-194.62613
-156.6443
-122.72058
-91.976202
-63.77233
-37.62941
-13.177905
9.8727456
31.755411
52.660537
72.746822
92.14886
110.98274
129.35032
147.34247
165.04178
182.5247
199.86337
217.12728
234.38468
251.70406
269.1555
286.81214
304.75178
323.05871
341.8258
361.15713
381.17121
402.00523
423.82059
446.81042
471.21019
497.31265
525.4891
556.22057
590.14607
628.14193
671.4587
721.97589
782.73886
859.2505
962.83877
1119.1209
1397.5648
-695.723
-547.64826
-429.50012
-349.74607
-288.55185
-238.00295
-194.7043
-156.72035
-122.7945
-92.047936
-63.841818
-37.696578
-13.242675
9.8104505
31.69566
52.603386
72.692311
92.097006
110.93355
129.30375
147.29851
165.00038
182.48579
199.82689
217.09312
234.35273
251.67419
269.12754
286.78592
304.72711
323.03539
341.80362
361.13588
381.1507
401.98525
423.80094
446.79094
471.19074
497.29309
525.46935
556.20057
590.12583
628.12151
671.43821
721.95552
782.71887
859.23123
962.82068
1119.1045
1397.5509
-695.82724
-547.74684
-429.59492
-349.83814
-288.64163
-238.09061
-194.78991
-156.80393
-122.87602
-92.127342
-63.919044
-37.771546
-13.315303
9.740239
31.627935
52.538203
72.629706
92.036996
110.87613
129.24892
147.24622
164.9506
182.43846
199.78193
217.05044
234.31222
251.6357
269.09091
286.75097
304.69365
323.0032
341.7725
361.10561
381.12107
401.95607
423.77202
446.7621
471.16182
497.26398
525.43996
556.17086
590.09579
628.0912
671.40776
721.92511
782.68876
859.20179
962.79237
1119.0778
1397.5266
-695.93805
-547.85237
-429.69688
-349.93752
-288.73882
-238.1858
-194.88315
-156.89523
-122.96534
-92.21464
-64.00424
-37.85456
-13.396053
9.6618302
31.551934
52.46466
72.558654
91.968451
110.81009
129.18537
147.18514
164.89194
182.38217
199.72795
216.99866
234.26253
251.58796
269.04496
286.70662
304.6507
322.96146
341.73175
361.06564
381.08166
401.91703
423.73315
446.72325
471.12283
497.22472
525.40036
556.13086
590.05541
628.05049
671.36683
721.88416
782.64806
859.1617
962.75334
1119.0404
1397.4914
-696.05546
-547.96488
-429.80605
-350.04427
-288.84354
-238.28862
-194.98413
-156.99437
-123.06261
-92.309974
-64.097561
-37.945788
-13.485109
9.5750212
31.467433
52.382512
72.478887
91.891076
110.73511
129.11276
147.11488
164.824
182.31651
199.66447
216.9373
234.20316
251.53044
268.98913
286.65231
304.59772
322.9096
341.6808
361.0154
381.03193
401.86761
423.68385
446.6739
471.07329
497.17488
525.35011
556.08018
590.0043
627.999
671.31508
721.83234
782.59644
859.11063
962.70328
1118.9918
1397.4451
-696.1794
-548.08435
-429.92244
-350.15842
-288.95579
-238.39911
-195.0929
-157.10141
-123.16788
-92.413402
-64.199079
-38.045315
-13.582569
9.4796954
31.374296
52.291601
72.390225
91.804672
110.65096
129.03085
147.03519
164.7465
182.24114
199.59117
216.86598
234.13371
251.46274
268.92302
286.58763
304.53429
322.84722
341.61928
360.95453
380.97152
401.80745
423.62378
446.61375
471.01292
497.11417
525.28899
556.01859
589.94224
627.93653
671.25232
721.76947
782.53373
859.04843
962.64202
1118.932
1397.3874
-696.30974
-548.21067
-430.04595
-350.27989
-289.07551
-238.5172
-195.20939
-157.21628
-123.28109
-92.524891
-64.308768
-38.15313
-13.68844
9.3758294
31.27248
52.191868
72.292591
91.70914
110.55752
128.93951
146.94591
164.65924
182.15587
199.50783
216.78448
234.05396
251.38461
268.84638
286.51233
304.46015
322.77408
341.54694
360.88281
380.90021
401.73639
423.55278
446.54265
470.94159
497.0425
525.21689
555.94602
589.86919
627.86306
671.17854
721.69555
782.45993
858.97509
962.56956
1118.8609
1397.3183
-696.44622
-548.34361
-430.17639
-350.40848
-289.20252
-238.64271
-195.33343
-157.33883
-123.4021
-92.644296
-64.4265
-38.269118
-13.802622
9.263504
31.16205
52.083358
72.186012
91.604496
110.45481
128.8387
146.847
164.5622
182.06064
199.41437
216.69271
233.9638
251.29595
268.75911
286.4263
304.37523
322.69009
341.46372
360.80017
380.81799
401.6544
423.47086
446.46065
470.85937
496.95995
525.13392
555.86259
589.78529
627.77873
671.09388
721.61074
782.37521
858.89079
962.48608
1118.7787
1397.2378
-696.58844
-548.48284
-430.31343
-350.54389
-289.33652
-238.77537
-195.46475
-157.46878
-123.53064
-92.771359
-64.552027
-38.393049
-13.924903
9.1429151
31.043185
51.966235
72.070641
91.490875
110.34293
128.72856
146.73856
164.45545
181.95554
199.31086
216.59075
233.8633
251.19683
268.66127
286.32962
304.27958
322.59534
341.36971
360.70674
380.72498
401.56164
423.3782
446.36794
470.76647
496.86675
525.04034
555.76857
589.69082
627.68384
670.99868
721.51538
782.27992
858.79587
962.3919
1118.6856
1397.1464
-696.73589
-548.62787
-430.45662
-350.68568
-289.47707
-238.91473
-195.60291
-157.60572
-123.6663
-92.905694
-64.684979
-38.524568
-14.054945
9.0143856
30.916192
51.840795
71.946759
91.368552
110.22216
128.60933
146.62086
164.33923
181.84079
199.19755
216.47881
233.75268
251.08747
268.55309
286.22252
304.17346
322.49008
341.26518
360.60281
380.62149
401.45844
423.27514
446.26487
470.66327
496.7633
524.93656
555.66439
589.58622
627.57886
670.89339
721.40994
782.17453
858.6908
962.28749
1118.5822
1397.0445
-696.88791
-548.77808
-430.60537
-350.83327
-289.62362
-239.06025
-195.74738
-157.74911
-123.80856
-93.046786
-64.824856
-38.663189
-14.192276
8.8783728
30.781517
51.70747
71.814792
91.237943
110.0929
128.48141
146.49427
164.21396
181.7168
199.07481
216.3573
233.63235
250.96827
268.43497
286.10541
304.05728
322.37474
341.15057
360.4888
380.50796
401.34526
423.16217
446.15197
470.5503
496.65015
524.82313
555.55062
589.47208
627.46438
670.77864
721.29503
782.05967
858.57622
962.17347
1118.4691
1396.9326
-697.04373
-548.93274
-430.75897
-350.98596
-289.77546
-239.21123
-195.89747
-157.89827
-123.95676
-93.193986
-64.971022
-38.808291
-14.336287
8.735474
30.639747
51.566841
71.675311
91.099612
109.95572
128.34537
146.35936
164.08017
181.58412
198.94322
216.22677
233.50287
250.8398
268.30748
285.97886
303.93162
322.24989
341.02646
360.36534
380.38503
401.22273
423.03992
446.02986
470.42821
496.52796
524.70073
555.42795
589.34912
627.34112
670.65514
721.17141
781.93607
858.45286
962.05058
1118.3469
1396.8114
-697.20242
-549.09097
-430.91655
-351.14291
-289.93177
-239.36686
-196.05238
-158.05242
-124.11012
-93.346525
-65.122719
-38.959124
-14.486237
8.5864227
30.491609
51.419627
71.52903
90.954271
109.81132
128.20191
146.21684
163.93858
181.44346
198.80347
216.08794
233.36495
250.70278
268.17135
285.84361
303.79721
322.11629
340.89361
360.23317
380.25344
401.09163
422.90917
445.89934
470.29779
496.39752
524.57019
555.29722
589.21816
627.20993
670.52377
721.03993
781.80461
858.32159
961.91969
1118.2165
1396.6819
-697.363
-549.2518
-431.07716
-351.30318
-290.09161
-239.52621
-196.21119
-158.21065
-124.26774
-93.503516
-65.279066
-39.114815
-14.641259
8.4320819
30.337961
51.266685
71.376804
90.802771
109.66055
128.05188
146.06755
163.79004
181.29567
198.65644
215.94168
233.21947
250.5581
268.02747
285.70054
303.65496
321.97484
340.75293
360.09321
380.11413
400.95286
422.77083
445.76132
470.15997
496.25978
524.43243
555.15936
589.08016
627.07177
670.38547
720.90156
781.66626
858.18337
961.78174
1118.079
1396.5448
-697.52437
-549.41416
-431.23977
-351.46573
-290.25396
-239.68827
-196.3729
-158.37196
-124.42863
-93.663977
-65.439087
-39.274387
-14.800376
8.2734278
30.179781
51.108991
71.21961
90.646089
109.5044
127.89627
145.91249
163.63554
181.14175
198.50313
215.789
233.06746
250.40679
267.87689
285.55073
303.50593
321.82661
340.60549
359.94652
379.96813
400.80747
422.62596
445.61685
470.01579
496.11577
524.28849
555.01542
588.93616
626.92769
670.24131
720.75736
781.52208
858.03928
961.63782
1117.9353
1396.4014
-697.68542
-549.57694
-431.40325
-351.62946
-290.41774
-239.85197
-196.53643
-158.53529
-124.59174
-93.826844
-65.601714
-39.436775
-14.96252
8.1115332
30.018145
50.947625
71.05853
90.485313
109.34394
127.73616
145.75275
163.47619
180.98283
198.34468
215.63106
232.91007
250.25002
267.72079
285.39535
303.35132
321.6728
340.45248
359.79429
379.81664
400.65666
422.47573
445.4671
469.8664
495.96665
524.13954
554.86656
588.78733
626.77886
670.09246
720.60851
781.37324
857.89049
961.48909
1117.7866
1396.2526
-697.84495
-549.73897
-431.56646
-351.79323
-290.58179
-240.01615
-196.70066
-158.6995
-124.75592
-93.990988
-65.765818
-39.600841
-15.126548
7.9475475
29.854209
50.783753
70.89474
90.321627
109.18039
127.57276
145.58955
163.31323
180.82016
198.18234
215.46912
232.7486
250.08909
267.56048
285.23573
303.19245
321.51472
340.29521
359.63783
379.66097
400.5017
422.32141
445.31333
469.71308
495.81368
523.98683
554.71404
588.63492
626.62652
669.94018
720.45625
781.221
857.73824
961.33678
1117.6342
1396.0999
-698.00176
-549.89905
-431.7282
-351.95585
-290.74495
-240.17966
-196.86441
-158.86344
-124.92001
-94.155234
-65.930218
-39.765396
-15.29126
7.7826803
29.689196
50.618607
70.729484
90.156289
109.015
127.40737
145.4242
163.14798
180.65506
198.01748
215.30456
232.58443
249.9254
267.39736
285.07327
303.03072
321.35378
340.1351
359.47855
379.50249
400.34398
422.16438
445.1569
469.55717
495.65821
523.8317
554.55918
588.48027
626.47203
669.78579
720.30192
781.06668
857.58385
961.18221
1117.4793
1395.9444
-698.15465
-550.05596
-431.88726
-352.11612
-290.90601
-240.34129
-197.02649
-159.0259
-125.08282
-94.318374
-66.093694
-39.929212
-15.455417
7.6181862
29.524373
50.453475
70.564067
89.990622
108.84913
127.24135
145.25808
162.98184
180.48897
197.85152
215.13883
232.41903
249.76043
267.23293
284.90947
302.86764
321.19148
339.97362
359.31791
379.34266
400.18493
422.00606
444.99924
469.40009
495.50163
523.67556
554.40339
588.32477
626.31675
669.63068
720.1469
780.91166
857.4287
961.02676
1117.3233
1395.7875
-698.30241
-550.20849
-432.04242
-352.27281
-291.06376
-240.49984
-197.18568
-159.18565
-125.2431
-94.479172
-66.255003
-40.091031
-15.617745
7.455355
29.361052
50.289684
70.39984
89.826003
108.68417
127.07611
145.09264
162.81628
180.32337
197.68598
214.97346
232.25394
249.59573
267.06873
284.74588
302.70475
321.02935
339.8123
359.15741
379.18299
400.02606
421.84793
444.84181
469.2433
495.34541
523.51984
554.24811
588.16987
626.16215
669.47629
719.99262
780.75735
857.27421
960.87184
1117.1676
1395.6307
-698.44383
-550.35545
-432.19249
-352.42473
-291.21698
-240.65407
-197.34076
-159.34148
-125.39963
-94.636383
-66.412883
-40.249576
-15.77695
7.2955007
29.200566
50.128597
70.238191
89.663843
108.52157
126.91313
144.92938
162.65281
180.1598
197.52242
214.81001
232.09073
249.43287
266.90634
284.58407
302.5436
320.86894
339.65268
358.99859
379.02499
399.86886
421.69151
444.68612
469.08829
495.19104
523.36604
554.09483
588.01702
626.00966
669.32406
719.84052
780.60522
857.12182
960.71889
1117.0138
1395.4754
-698.57778
-550.49565
-432.33627
-352.57068
-291.36448
-240.8028
-197.49052
-159.49216
-125.55117
-94.788752
-66.566065
-40.403561
-15.931724
7.1399548
29.044274
49.971596
70.080529
89.505584
108.36278
126.75391
144.7698
162.49298
179.99982
197.3624
214.65008
231.93098
249.27345
266.74735
284.42561
302.38578
320.71182
339.4963
358.843
378.87019
399.71486
421.53829
444.53366
468.93657
495.04
523.21564
553.94501
587.86772
625.86077
669.17547
719.69208
780.45672
856.97299
960.56937
1116.8632
1395.323
-698.70315
-550.62796
-432.47262
-352.7095
-291.50509
-240.94483
-197.63375
-159.63648
-125.6965
-94.935036
-66.713286
-40.551697
-16.080756
6.9900544
28.89354
49.820074
69.928279
89.352676
108.2093
126.59994
144.61544
162.33833
179.845
197.20751
214.49523
231.77631
249.11905
266.59335
284.2721
302.23285
320.55954
339.34473
358.69218
378.72014
399.56559
421.38981
444.38596
468.78963
494.8938
523.07014
553.80015
587.72343
625.71696
669.032
719.54876
780.31332
856.82918
960.42475
1116.7172
1395.175
-698.8189
-550.75134
-432.60046
-352.84009
-291.63768
-241.07903
-197.76931
-159.77325
-125.83439
-95.074008
-66.853293
-40.692709
-16.222741
6.8471326
28.749727
49.675425
69.782862
89.206569
108.06259
126.45272
144.46782
162.19041
179.69688
197.0593
214.34705
231.62826
248.97125
266.4459
284.1251
302.08637
320.41366
339.19951
358.54766
378.57636
399.42258
421.24759
444.24453
468.64899
494.75393
522.93103
553.66174
587.58564
625.57969
668.89509
719.41202
780.17646
856.69185
960.28647
1116.5775
1395.033
-698.9241
-550.86479
-432.71877
-352.96141
-291.76119
-241.2043
-197.89607
-159.90134
-125.96371
-95.204474
-66.984865
-40.825344
-16.356397
6.7125027
28.614177
49.539021
69.645679
89.068692
107.92411
126.31374
144.32843
162.05072
179.55699
196.91932
214.20707
231.48839
248.83159
266.30653
283.98613
301.94787
320.2757
339.06216
358.41097
378.44038
399.28734
421.11312
444.11087
468.51614
494.62189
522.79977
553.53123
587.4558
625.4504
668.7662
719.28329
780.04758
856.56242
960.15598
1116.4453
1394.8982
-699.01791
-550.96743
-432.82663
-353.07251
-291.87464
-241.31962
-198.01299
-160.01966
-126.08332
-95.325287
-67.10682
-40.948388
-16.480477
6.5874422
28.4882
49.412198
69.518092
88.940429
107.79527
126.18441
144.19871
161.92071
179.42678
196.78901
214.07676
231.35817
248.70154
266.17675
283.85668
301.81884
320.14717
338.93418
358.2836
378.31368
399.16137
420.98792
443.98646
468.39256
494.49914
522.67784
553.41007
587.33534
625.33052
668.64672
719.16396
779.92807
856.44229
960.03465
1116.3221
1394.7723
-699.09964
-551.0585
-432.92323
-353.17253
-291.97713
-241.42408
-198.11909
-160.12721
-126.19218
-95.435364
-67.21804
-41.060688
-16.593795
6.4731695
28.373042
49.296231
69.401399
88.823099
107.67739
126.06608
144.08003
161.80175
179.30765
196.66978
213.95752
231.239
248.58252
266.05796
283.7382
301.70073
320.02949
338.81701
358.16701
378.19773
399.04611
420.87341
443.87275
468.27967
494.38709
522.56662
553.29964
587.22563
625.2214
668.538
719.05537
779.81926
856.33277
959.92383
1116.2093
1394.6564
-699.16873
-551.13738
-433.00789
-353.26074
-292.06788
-241.51683
-198.2135
-160.22307
-126.28932
-95.533703
-67.317487
-41.161172
-16.695248
6.3708166
28.269861
49.192301
69.296802
88.717922
107.57172
125.96001
143.97363
161.69512
179.20086
196.56292
213.85065
231.13219
248.47585
265.9515
283.632
301.59487
319.92403
338.71202
358.06255
378.09387
398.94292
420.77095
443.77107
468.17881
494.28706
522.46742
553.20124
587.12794
625.1243
668.44129
718.95877
779.72238
856.23512
959.82475
1116.108
1394.5519
-699.22479
-551.2036
-433.08008
-353.33653
-292.14623
-241.59716
-198.29546
-160.30642
-126.37392
-95.619421
-67.404242
-41.248888
-16.783852
6.2813939
28.179693
49.101462
69.205373
88.625985
107.47936
125.8673
143.88065
161.60194
179.10756
196.46956
213.75729
231.03891
248.3827
265.85853
283.53929
301.50246
319.832
338.62043
357.97147
378.00336
398.85305
420.68178
443.68266
468.09118
494.20026
522.38143
553.11602
587.04343
625.04035
668.3577
718.87525
779.63854
856.15043
959.73853
1116.0195
1394.4599
-699.26767
-551.25689
-433.13943
-353.3995
-292.21168
-241.66452
-198.36436
-160.37662
-126.44525
-95.691779
-67.477532
-41.323032
-16.858781
6.2057517
28.103407
49.024604
69.128015
88.5482
107.40122
125.78888
143.80202
161.52316
179.02869
196.39066
213.67843
230.96013
248.30406
265.78008
283.46108
301.42455
319.75445
338.54328
357.89481
377.92725
398.77755
420.60694
443.60853
468.01782
494.12768
522.30963
553.04497
586.97304
624.9705
668.28818
718.80576
779.56868
856.07965
959.66612
1115.9446
1394.3814
-699.29746
-551.29724
-433.18582
-353.44939
-292.26394
-241.71854
-198.41977
-160.43318
-126.50282
-95.75023
-67.536781
-41.383006
-16.91941
6.1445327
28.041662
48.962397
69.065411
88.485264
107.33801
125.72546
143.73845
161.45951
178.96499
196.32697
213.6148
230.89661
248.24069
265.71691
283.39815
301.36192
319.69215
338.48139
357.83337
377.86632
398.71719
420.54721
443.54948
467.95948
494.07007
522.25275
552.98878
586.91748
624.91543
668.2334
718.75098
779.51348
856.02349
959.60826
1115.8842
1394.3171
-699.31469
-551.32496
-433.21941
-353.48627
-292.30295
-241.75908
-198.46151
-160.47589
-126.54634
-95.794476
-67.581667
-41.428464
-16.965378
6.0981122
27.994845
48.915239
69.017966
88.437585
107.29015
125.67747
143.69038
161.4114
178.91689
196.27893
213.56685
230.84879
248.19305
265.66948
283.35097
301.31502
319.64559
338.43521
357.78761
377.82104
398.67244
420.50304
443.50592
467.91657
494.02783
522.21117
552.94784
586.8771
624.87548
668.1937
718.71124
779.47331
855.98233
959.56539
1115.8387
1394.2677
-699.32033
-551.3408
-433.2407
-353.51045
-292.32892
-241.7863
-198.48966
-160.50478
-126.57585
-95.824515
-67.61217
-41.459372
-16.996641
6.0665441
27.963017
48.883195
68.985749
88.405236
107.25771
125.64498
143.65787
161.37891
178.88446
196.24659
213.53464
230.81674
248.16119
265.63784
283.31958
301.28393
319.61481
338.40478
357.75758
377.79144
398.64331
420.47442
443.47785
467.88907
494.00091
522.18484
552.92206
586.8518
624.85057
668.16899
718.68647
779.44811
855.95619
959.53757
1115.8084
1394.2334
-699.31649
-551.34622
-433.25073
-353.52275
-292.34253
-241.80077
-198.50475
-160.52035
-126.59181
-95.840792
-67.628722
-41.476157
-17.013618
6.0494097
27.945759
48.865845
68.968336
88.387788
107.24026
125.62754
143.64048
161.36159
178.86725
196.2295
213.5177
230.79998
248.14463
265.62151
283.3035
301.2681
319.59928
338.38956
357.7427
377.77693
398.6292
420.46074
443.46462
467.87631
493.98863
522.17303
552.9107
586.84085
624.83993
668.15852
718.67595
779.43722
855.94447
959.52438
1115.7928
1394.2142
-699.30327
-551.34079
-433.24852
-353.52183
-292.34225
-241.80088
-198.50512
-160.52091
-126.59251
-95.841602
-67.629615
-41.477108
-17.014605
6.048409
27.944764
48.864872
68.9674
88.386905
107.23944
125.62681
143.63984
161.36107
178.86686
196.22926
213.51763
230.80009
248.14494
265.62203
283.30425
301.2691
319.60053
338.39108
357.7445
377.77902
398.6316
420.46347
443.46769
467.87974
493.99242
522.17718
552.9152
586.84566
624.84499
668.16371
718.68112
779.44212
855.94875
959.52743
1115.7938
1394.2121
-572.0967
-492.24486
-407.17643
-338.38328
-281.41516
-232.93581
-190.83437
-153.64916
-120.29128
-89.965321
-62.082625
-36.193959
-11.948858
10.930481
32.667513
53.446504
73.421915
92.72517
111.46975
129.75503
147.67043
165.29756
182.7122
199.98569
217.18649
234.38184
251.6392
269.0277
286.61953
304.4914
322.72631
341.41554
360.66118
380.5792
401.30341
422.99061
445.82759
470.04081
495.91028
523.78883
554.12876
587.5222
624.76531
666.96101
715.69877
773.24488
842.94864
930.0468
1043.3163
1202.3085
-572.1108
-492.25406
-407.1847
-338.39082
-281.42214
-232.94216
-190.84016
-153.65446
-120.29612
-89.969818
-62.086691
-36.197642
-11.952085
10.927636
32.66514
53.444562
73.420348
92.723929
111.46871
129.7543
147.67001
165.29747
182.71238
199.98604
217.18697
234.38241
251.63986
269.02848
286.62043
304.49245
322.7275
341.4169
360.66271
380.58091
401.30531
422.99272
445.82993
470.04339
495.91312
523.79196
554.1322
587.52598
624.76946
666.96558
715.70381
773.25046
842.95483
930.05367
1043.324
1202.3171
-572.13081
-492.26935
-407.19792
-338.40259
-281.43268
-232.95158
-190.84857
-153.66196
-120.30285
-89.975823
-62.091957
-36.202129
-11.955792
10.924726
32.663051
53.44329
73.419793
92.723948
111.46924
129.75538
147.67171
165.29977
182.71517
199.9892
217.19041
234.3861
251.64381
269.03269
286.62494
304.49726
322.73264
341.42236
360.66852
380.5871
401.31189
422.99972
445.83737
470.05131
495.92154
523.8009
554.14171
587.53609
624.78022
666.97704
715.71604
773.26351
842.96875
930.06851
1043.3397
1202.3339
-572.15664
-492.29005
-407.21606
-338.41878
-281.44721
-232.96461
-190.86024
-153.67243
-120.31222
-89.984158
-62.099229
-36.208306
-11.960858
10.920782
32.660253
53.441616
73.419136
92.724167
111.47025
129.75721
147.67439
165.30327
182.71938
199.99399
217.19568
234.3918
251.64995
269.03928
286.63199
304.50479
322.74065
341.43089
360.67758
380.5967
401.32207
423.01051
445.8488
470.0634
495.93434
523.81444
554.15602
587.55123
624.79624
666.99401
715.73402
773.28259
842.98896
930.08986
1043.3622
1202.3576
-572.18723
-492.3154
-407.23856
-338.43901
-281.46548
-232.98113
-190.87516
-153.68588
-120.32431
-89.994917
-62.108647
-36.216354
-11.967523
10.91551
32.656386
53.439125
73.417928
92.724118
111.47129
129.75931
147.67756
165.30746
182.72449
199.9999
217.20229
234.39907
251.65785
269.04782
286.64117
304.51462
322.75115
341.44205
360.68943
380.60927
401.33538
423.02458
445.86367
470.0791
495.95089
523.83187
554.17438
587.57056
624.8166
667.01548
715.75667
773.30648
843.01413
930.11633
1043.39
1202.3866
-572.2221
-492.34501
-407.26516
-338.46317
-281.4875
-233.0012
-190.89344
-153.70248
-120.33932
-90.008356
-62.120504
-36.226607
-11.976161
10.908492
32.650989
53.435321
73.415643
92.723255
111.47177
129.7611
147.68064
165.31176
182.72992
200.00636
217.2097
234.40736
251.66699
269.0578
286.65197
304.52623
322.76358
341.45531
360.70353
380.62422
401.3512
423.0413
445.88129
470.09765
495.97039
523.85236
554.19587
587.5931
624.84024
667.04027
715.7827
773.33382
843.04283
930.1464
1043.4214
1202.4196
-572.26109
-492.37876
-407.29584
-338.4913
-281.51337
-233.02501
-190.91531
-153.72251
-120.35755
-90.024817
-62.135178
-36.239479
-11.987222
10.899246
32.643554
53.429673
73.411728
92.720998
111.4711
129.76198
147.68301
165.31558
182.73509
200.01278
217.2173
234.41607
251.67676
269.06859
286.66376
304.53901
322.77733
341.47002
360.71921
380.64086
401.36881
423.05989
445.90086
470.11821
495.99194
523.8749
554.21944
587.61771
624.86595
667.06713
715.81078
773.3632
843.07357
930.17853
1043.4549
1202.4547
-572.30426
-492.41675
-407.33073
-338.52358
-281.54331
-233.05279
-190.94106
-153.74628
-120.37938
-90.044699
-62.153106
-36.255437
-12.0012
10.887252
32.63354
53.421625
73.405606
92.716749
111.46867
129.76131
147.68406
165.31827
182.73934
200.01852
217.22443
234.42453
251.68648
269.07952
286.67586
304.55224
322.79166
341.48545
360.7357
380.6584
401.38739
423.07949
445.92147
470.1398
496.01451
523.89844
554.24395
587.64322