/*--------------------------------*- C++ -*----------------------------------*\
  =========                 |
  \\      /  F ield         | OpenFOAM: The Open Source CFD Toolbox
   \\    /   O peration     | Website:  https://openfoam.org
    \\  /    A nd           | Version:  12
     \\/     M anipulation  |
\*---------------------------------------------------------------------------*/
FoamFile
{
    format      ascii;
    class       volScalarField;
    location    "3";
    object      p;
}
// * * * * * * * * * * * * * * * * * * * * * * * * * * * * * * * * * * * * * //

dimensions      [0 2 -2 0 0 0 0];

internalField   nonuniform List<scalar> 
226563
(
149304.57
149184.77
148931.52
148517.44
147939.79
147190.9
146258.35
145125.76
143773.57
142179.05
140317.24
138161.99
135688.88
132877.17
129714.17
126195.58
122329.53
118134.38
113636.21
108865.79
103857.16
98650.208
93292.439
87838.266
82348.213
76881.415
71494.716
66238.312
61154.426
56275.87
51626.259
47221.564
43071.702
39181.656
35551.993
32179.499
29057.893
26178.655
23531.641
21105.516
18888.182
16867.087
15029.522
13362.809
11854.516
10492.518
9265.2413
8161.763
7171.797
6285.668
5494.3092
4789.0731
4161.96
3605.7242
3113.6227
2679.3807
2297.2032
1961.7295
1668.0516
1411.3609
1187.2832
991.94638
821.5352
672.43693
541.21648
424.54245
319.20344
222.20545
130.91161
43.171401
149136.16
149025.8
148778.38
148368.92
147794.78
147048.36
146117.16
144984.7
143631.02
142033.1
140165.72
138002.66
135519.24
132694.95
129516.44
125979.87
122092.4
117871.89
113344.3
108540.74
103497.5
98256.463
92867.208
87386.393
81874.796
76392.872
70997.062
65737.421
60655.566
55783.702
51144.982
46754.801
42622.422
38752.126
35143.811
31793.658
28694.889
25838.564
23214.178
20810.137
18614.126
16613.449
14795.273
13146.862
11655.752
10309.854
9097.6177
8008.1566
7031.2142
6157.1708
5377.0053
4682.1269
4064.6109
3517.2694
3033.4142
2606.8361
2231.7895
1902.9661
1615.504
1364.6749
1146.1141
955.93821
790.40666
645.96148
519.19793
406.82062
305.64757
212.71183
125.37964
41.382432
148830.69
148721.38
148476.92
148071.75
147501.92
146758.97
145829.8
144697.28
143340.67
141736.23
139858.08
137679.66
135175.77
132325.63
129115.4
125540.73
121607.95
117333.91
112744.59
107873.24
102759.27
97449.238
91996.602
86461.338
80906.514
75393.731
69979.681
64713.816
59636.701
54779.381
50163.858
45804.263
41708.452
37879.212
34315.066
31010.971
27959.116
25149.705
22571.554
20212.534
18059.931
16100.734
14321.896
12710.566
11254.257
9940.9242
8759.094
7697.9444
6747.3031
5897.6515
5140.034
4466.0003
3867.8178
3338.4021
2871.1759
2460.0445
2099.3839
1784.0068
1509.0475
1269.9058
1062.3767
882.59766
726.90263
591.81156
473.99483
370.22956
277.4071
192.63238
113.35296
37.374834
148371.64
148264.83
148023.86
147623.46
147058.48
146319.46
145392.42
144259.25
142898.12
141284.14
139390.32
137189.07
134654.36
131764.3
128504.35
124869.15
120863.96
116504.96
111819.18
106843.1
101621.38
96206.411
90657.819
85040.294
79420.437
73861.726
68421.235
63147.625
58079.921
53247.335
48669.824
44359.357
40321.507
36556.761
33061.498
29828.801
26849.296
24111.923
21604.513
19314.175
17227.6
15331.322
13612.022
12056.737
10652.967
9388.7313
8252.6688
7234.0791
6322.9216
5509.8269
4785.9783
4143.1789
3573.9442
3071.3565
2629.0098
2240.9843
1901.8494
1606.5404
1350.251
1128.593
937.5268
773.27173
632.26808
511.14536
406.68419
315.77189
235.41315
162.82364
95.603378
31.496199
147757.76
147653.71
147416.34
147020.71
146460.6
145725.46
144800.27
143665.66
142298.42
140672.03
138757.84
136526.53
133950.23
131005.53
127676.26
123955.78
119848.34
115370.01
110550.02
105429.89
100060.92
94503.542
88825.079
83097.005
77390.597
71771.869
66298.449
61017.901
55967.136
51172.559
46651.016
42411.236
38455.487
34781.058
31381.431
28247.162
25366.793
22727.642
20316.282
18118.845
16121.244
14309.489
12669.999
11189.718
9856.148
8657.4094
7582.2968
6620.2981
5761.5409
4996.8847
4317.7963
3716.4156
3185.5279
2718.4595
2309.0418
1951.5959
1640.9335
1372.1108
1140.5176
942.01168
772.70967
628.9765
507.39533
404.74006
317.93288
244.00769
180.12402
123.68886
72.215201
23.672809
146985.41
146883.99
146650.04
146258.95
145703.46
144971.95
144048.12
142911.2
141536.22
139894.64
137955.42
135686.63
133057.76
130042.78
126623.37
122790.95
118548.81
113913.74
108918.48
103611.44
98052.926
92313.21
86469.878
80602.854
74789.399
69098.708
63588.912
58305.992
53283.723
48544.535
44100.834
39956.835
36110.376
32554.627
29279.393
26272.104
23518.785
21004.806
18715.246
16635.065
14749.308
13043.488
11503.803
10117.12
8870.9906
7753.6929
6754.2418
5862.3336
5068.3799
4363.6033
3739.873
3189.701
2706.1937
2282.9898
1914.2303
1594.5363
1319.0015
1082.8481
881.77042
711.85768
569.42815
451.03367
353.43855
273.59078
208.58699
155.6382
112.1738
75.53423
43.311947
14.0174
146048.92
145949.99
145719.26
145332.47
144781.39
144053.24
143130.37
141990.3
140606.03
138946.46
136977.53
134663.74
131970.95
128869.66
125338.05
121365.17
116953.37
112120.83
106905.23
101364.29
95570.088
89605.749
83561.216
77527.327
71588.483
65817.396
60272.363
54996.749
50019.878
45358.534
41019.14
36999.978
33293.261
29887.07
26766.829
23916.314
21318.706
18957.186
16815.138
14876.235
13124.699
11545.632
10125.05
8849.8043
7707.5799
6686.8822
5776.9633
4967.8438
4250.4172
3616.3658
3058.0047
2568.2655
2140.6495
1769.1803
1448.3709
1173.2121
939.08067
741.46367
576.40807
440.25079
329.54847
241.07753
171.81518
118.91432
79.674916
51.526557
32.132291
18.742134
9.3420338
2.7423991
144941.47
144844.96
144617.37
144234.77
143688.03
142963.18
142041.04
140897.25
139502.38
137822.27
135819.01
133452.83
130684.87
127480.55
123813.81
119670.2
115051.02
109976.65
104491.26
98664.713
92584.68
86350.47
80067.935
73840.721
67761.604
61906.826
56333.853
51081.871
46173.692
41618.547
37415.015
33553.873
30020.475
26796.923
23863.593
21200.314
18787.202
16605.095
14635.566
12861.039
11265.069
9832.4469
8549.0847
7401.9337
6378.9009
5468.7436
4661.0745
3946.4813
3316.4304
2763.1046
2279.3246
1858.5116
1494.635
1182.1701
916.06239
691.72337
504.79784
351.18761
227.28692
129.70747
55.277621
1.0311382
-35.814029
-57.873332
-67.618648
-67.306212
-59.33318
-46.167777
-29.306581
-10.076151
143655.67
143561.57
143337.18
142958.89
142416.67
141695.33
140774.08
139626.42
138220.1
136517.33
134475.76
132050.26
129195.86
125871.94
122046.14
117699.82
112832.83
107468.5
101659.33
95490.732
89070.478
82519.166
75961.974
69517.934
63288.959
57354.144
51768.388
46564.223
41755.428
37341.163
33310.122
29643.922
26319.915
23313.429
20599.423
18153.599
15952.955
13975.951
12202.41
10613.726
9192.9718
7924.7412
6794.9937
5790.9209
4900.681
4113.4173
3419.3875
2809.8489
2276.8616
1813.1845
1412.2168
1067.9363
774.84624
527.92729
322.60807
154.76787
20.346821
-84.257485
-162.31326
-216.89338
-250.86777
-266.92097
-267.56865
-255.17288
-231.94373
-199.83389
-161.36102
-118.48053
-72.343219
-24.348588
142184
142092.38
141871.41
141497.74
140960.48
140243.22
139323.42
138172.26
136754.27
135027.59
132944.54
130453.61
127502.54
124042.35
120033.34
115450.9
110293.02
104586.95
98395.911
91824.502
85006.53
78089.584
71223.169
64543.696
58162.667
52160.442
46586.472
41463.274
36792.211
32559.605
28742.002
25310.343
22233.031
19478.135
17015.057
14815.406
12853.177
11104.604
9548.0486
8164.19
6935.8096
5847.4974
4885.4556
4037.1836
3291.2185
2637.4165
2066.8004
1571.3075
1143.6609
777.27889
466.20385
205.03047
-11.152924
-186.81488
-326.00249
-432.36545
-509.56978
-560.72696
-588.7455
-596.35448
-586.10034
-560.36476
-521.37896
-471.23227
-411.77785
-344.97421
-273.11726
-197.48396
-119.35763
-39.93982
140519.2
140430.18
140212.92
139844.36
139312.77
138600.43
137683.06
136529.29
135100.21
133349.31
131222.96
128661.99
125604.94
121993.13
117776.73
112923.85
107429.96
101327.43
94693.322
87655.457
80380.681
73050.888
65844.587
58918.621
52393.258
46347.109
40820.051
35820.227
31332.602
27327.399
23766.954
20610.347
17816.45
15345.937
13162.849
11234.987
9533.6613
8033.2593
6711.1579
5547.6616
4525.5073
3629.5267
2846.3451
2163.8442
1571.2917
1059.414
620.00308
245.74273
-69.906564
-332.801
-548.204
-720.85851
-855.05254
-954.66953
-1023.2177
-1063.908
-1079.8478
-1073.7169
-1048.0495
-1005.2096
-947.40329
-876.69379
-795.01356
-704.15638
-605.60909
-501.47148
-393.51595
-282.57425
-169.98448
-56.72589
138654.58
138568.29
138355.09
137992.26
137467.15
136760.83
135847.18
134692.23
133253.42
131479.25
129309.2
126675.24
123505.1
119727.5
115280.7
110123.01
104246.84
97691.434
90551.805
82983.936
75195.126
67408.912
59839.345
52665.947
46016.02
39961.654
34527.63
29702.436
25449.902
21720.873
18461.758
15619.177
13142.494
10985.201
9106.5693
7471.1903
6048.2473
4810.8912
3736.0814
2804.0961
1997.9411
1302.9528
706.30188
196.49896
-236.19774
-600.18781
-902.85652
-1150.712
-1349.5014
-1504.317
-1619.6951
-1699.6924
-1747.9527
-1767.7621
-1762.0926
-1733.6752
-1685.0231
-1618.4211
-1536.0087
-1439.7751
-1331.5765
-1213.1504
-1086.1242
-952.00573
-811.98428
-668.01339
-521.48145
-373.02913
-223.80097
-74.566797
136584.33
136500.86
136292.08
135935.55
135417.76
134718.61
133810.18
132655.91
131209.52
129414.05
127201.52
124493.67
121205.28
117250.47
112551.86
107056.05
100751.78
93687.585
85982.01
77825.796
69471.57
61192.311
53244.278
45832.79
39089.557
33075.614
27793.559
23203.464
19242.09
15838.554
12922.668
10428.852
8297.8708
6476.308
4919.8866
3590.9963
2457.4407
1491.9632
671.64515
-22.868232
-607.97878
-1097.602
-1503.9221
-1837.4446
-2106.8849
-2319.7582
-2482.5827
-2601.0237
-2680.0117
-2723.8639
-2736.3813
-2720.9331
-2680.5185
-2617.8316
-2535.3099
-2435.1673
-2319.3789
-2189.8163
-2048.2215
-1896.2102
-1735.2871
-1566.8633
-1392.2562
-1212.5896
-1029.014
-843.31469
-656.082
-468.13941
-280.37233
-93.316989
134303.87
134223.23
134019.07
133669.24
133159.45
132468.48
131566.74
130415.18
128963.74
127149.86
124897.29
122116.54
118707.7
114566.68
109597.89
103733.01
96956.969
89331.636
81006.956
72215.256
63244.551
54424.212
46074.614
38437.748
31648.405
25743.921
20689.486
16407.553
12803.466
9781.8844
7254.4116
5142.9832
3379.5381
1907.8822
683.06266
-333.26907
-1173.9558
-1865.6121
-2430.5716
-2887.3754
-3251.5486
-3536.0916
-3752.3284
-3909.5732
-4015.5842
-4076.9752
-4099.3911
-4087.6525
-4045.8886
-3977.6555
-3886.0422
-3773.749
-3643.1549
-3496.3788
-3335.3423
-3161.7415
-2977.058
-2782.7508
-2580.1744
-2370.5772
-2155.1219
-1934.8948
-1710.8992
-1483.8578
-1255.1186
-1025.8916
-796.29464
-567.21412
-339.29415
-112.84378
131810.21
131732.24
131532.66
131189.58
130688.04
130005.81
129111.79
127964.6
126510.54
124681.26
122392.06
119541.15
116011.77
111679.39
106425.54
100164.4
92877.322
84645.29
75660.328
66171.903
56498.785
47081.174
38328.666
30513.674
23756.58
18052.444
13316.079
9424.2952
6246.2218
3660.05
1559.8707
-143.22957
-1522.111
-2633.1896
-3522.5065
-4228.0752
-4780.2981
-5203.2874
-5518.5594
-5743.2783
-5891.8735
-5976.3035
-6006.7474
-5991.378
-5937.0346
-5849.4521
-5733.4336
-5592.9986
-5431.5211
-5251.8453
-5056.3953
-4847.248
-4626.204
-4394.8457
-4154.6109
-3906.707
-3652.1579
-3392.0322
-3127.3154
-2858.9066
-2587.6415
-2314.2971
-2039.5892
-1763.9516
-1488.5657
-1214.305
-941.063
-669.53167
-400.14513
-133.00876
129102.47
129026.74
128831.32
128494.46
128000.66
127326.76
126440.41
125298.16
123842.85
122000.6
119678.02
116760.47
113113.17
108587.43
103038.72
96360.045
88529.171
79653.703
69956.61
59688.81
49256.428
39235.71
30124.269
22213.97
15590.513
10187.769
5857.4953
2424.8867
-277.77243
-2395.8521
-4048.7199
-5331.5983
-6319.0856
-7068.8599
-7626.5306
-8027.758
-8299.8256
-8465.3215
-8542.6649
-8546.349
-8489.6552
-8383.2524
-8236.0484
-8055.2084
-7846.6811
-7615.3808
-7365.3366
-7099.8489
-6821.6127
-6532.8406
-6235.3616
-5930.7
-5620.1369
-5304.7768
-4985.62
-4663.4337
-4338.8239
-4012.5056
-3685.122
-3357.2517
-3029.424
-2702.1297
-2375.8126
-2050.6533
-1727.5966
-1407.2853
-1089.3858
-774.38202
-462.50659
-153.67411
126182.34
126108.1
125915.81
125583.77
125095.95
124428.45
123547.91
122409.11
120951.84
119097.01
116743
113762.26
110000.6
105283.7
99437.166
92328.993
83932.4
74386.434
63929.763
52842.172
41656.841
31080.169
21696.287
13800.77
7421.2136
2412.8935
-1443.2495
-4373.961
-6579.6964
-8223.8336
-9433.9784
-10307.739
-10919.055
-11323.927
-11565.309
-11676.319
-11682.674
-11605.1
-11458.793
-11256.535
-11008.896
-10724.599
-10411.324
-10075.247
-9721.4777
-9354.1919
-8976.7485
-8591.8303
-8201.5609
-7807.6184
-7411.333
-7013.7602
-6615.7432
-6217.977
-5821.0903
-5425.4654
-5031.3451
-4639.132
-4249.1679
-3861.7425
-3477.1107
-3095.5009
-2717.1091
-2341.8836
-1970.5378
-1603.517
-1240.2666
-881.07024
-525.97052
-174.70567
123054.78
122980.77
122789.86
122460.02
121974.74
121309.6
120430.43
119290.6
117827.31
115957.02
113570.48
110527.75
106656
101754.37
95617.107
88084.394
79121.679
68901.966
57688.045
45819.358
33956.045
22933.742
13405.2
5645.1915
-395.70059
-4949.4705
-8304.8955
-10733.652
-12460.329
-13658.845
-14459.553
-14958.914
-15228.122
-15320.088
-15274.683
-15122.323
-14886.427
-14585.315
-14233.172
-13841.591
-13418.929
-12972.248
-12507.063
-12028.425
-11540.617
-11047.153
-10550.826
-10053.816
-9557.7899
-9064.0057
-8573.4016
-8086.6646
-7604.2912
-7126.6491
-6654.0692
-6186.6166
-5724.2316
-5267.0562
-4815.1764
-4368.6334
-3927.443
-3491.6022
-3061.0861
-2635.6349
-2215.7531
-1801.705
-1392.7268
-988.91507
-590.13678
-195.97192
119728.6
119653.12
119460.94
119129.26
118641.11
117971.7
117086.29
115937.13
114459.43
112566
110141.18
107034.45
103056.04
97981.545
91575.49
83649.813
74160.453
63315.268
51424.423
38907.495
26528.451
15233.644
5711.8399
-1807.8585
-7460.2831
-11558.111
-14446.162
-16426.454
-17736.634
-18553.651
-19006.281
-19187.773
-19165.837
-18990.239
-18698.148
-18317.749
-17870.586
-17373.304
-16838.852
-16277.467
-15697.083
-15103.917
-14502.134
-13895.221
-13286.182
-12677.899
-12072.676
-11472.287
-10878.056
-10290.933
-9711.5748
-9140.4075
-8577.6783
-8023.5178
-7478.0394
-6941.0617
-6412.2916
-5891.6688
-5379.074
-4874.3454
-4377.2993
-3887.7366
-3405.4401
-2929.9677
-2461.6535
-2000.5867
-1545.8104
-1097.2495
-654.61354
-217.3441
116217
116138.19
115941.2
115602.19
115103.73
114420.77
113518.07
112347.12
110841.7
108912.06
106437.85
103260.61
99178.429
93948.932
87314.017
79062.599
69142.002
57792.612
45398.56
32468.811
19822.152
8469.1582
-902.90843
-8126.2481
-13410.79
-17124.814
-19642.954
-21279.71
-22274.905
-22803.326
-22990.348
-22926.033
-22675.493
-22286.509
-21794.714
-21227.089
-20604.195
-19941.814
-19252.169
-18544.768
-17826.939
-17104.363
-16381.237
-15660.346
-14943.684
-14232.859
-13529.694
-12835.609
-12151.668
-11478.614
-10816.926
-10166.868
-9528.5368
-8901.9171
-8286.9927
-7683.401
-7090.6863
-6508.6525
-5937.0284
-5375.498
-4823.7215
-4281.3424
-3747.9797
-3223.0298
-2706.7106
-2198.9315
-1698.59
-1205.4271
-719.02086
-238.69754
112536.78
112452.28
112245.96
111892.75
111374.79
110666.7
109732.8
108524.05
106973.48
104989.94
102450.62
99193.119
95009.514
89649.232
82843.55
74370.863
64176.034
52523.342
39891.961
26864.08
14249.484
3058.0369
-6065.8781
-13009.22
-18022.058
-21487.565
-23781.388
-25213.2
-26017.632
-26365.303
-26378.963
-26147.327
-25735.005
-25189.744
-24547.307
-23834.82
-23072.961
-22277.55
-21460.766
-20631.981
-19798.341
-18965.281
-18136.775
-17315.711
-16504.117
-15702.961
-14912.994
-14135.225
-13370.484
-12619.372
-11882.269
-11159.363
-10450.682
-9756.1477
-9075.7035
-8408.8867
-7755.1173
-7114.1333
-6485.5691
-5869.0047
-5263.9889
-4670.0514
-4086.6939
-3513.3007
-2949.7513
-2395.5104
-1850.1645
-1312.8316
-782.99801
-259.91385
108709.14
108615.56
108394.57
108019.32
107471.45
106725.1
105744.26
104479.63
102864.05
100806.34
98183.842
94834.769
90552.954
85091.373
78187.03
69625.59
59360.911
47668.204
35119.101
22328.846
10041.8
-806.94292
-9644.5266
-16384.049
-21264.361
-24642.771
-26870.757
-28241.436
-28980.142
-29253.617
-29184.028
-28861.211
-28351.668
-27705.17
-26959.326
-26142.766
-25277.366
-24379.854
-23463.051
-22536.755
-21608.373
-20683.442
-19765.995
-18858.975
-17964.469
-17083.862
-16217.569
-15365.829
-14529.092
-13707.82
-12902.337
-12112.812
-11339.27
-10581.632
-9839.8619
-9113.5148
-8401.908
-7704.7533
-7021.6511
-6352.1264
-5695.6619
-5051.7102
-4419.7002
-3799.0406
-3189.0487
-2589.3639
-1999.7453
-1418.8889
-846.20429
-280.8809
104762.68
104656.63
104415.56
104010.22
103421.66
102623.49
101579.41
100240.15
98539.13
96386.623
93662.966
90211.955
85837.151
80307.095
73380.92
64870.906
54751.627
43296.45
31125.582
18845.266
7117.4917
-3268.8089
-11818.146
-18435.3
-23305.695
-26732.511
-29025.768
-30454.06
-31231.12
-31520.217
-31444.451
-31096.578
-30546.714
-29848.156
-29041.618
-28158.287
-27222.076
-26251.291
-25259.954
-24258.746
-23255.707
-22256.799
-21266.347
-20287.542
-19322.643
-18373.155
-17439.99
-16523.339
-15623.135
-14739.495
-13872.677
-13022.857
-12190.099
-11374.367
-10575.667
-9793.7152
-9027.751
-8277.473
-7542.5021
-6822.3593
-6116.5003
-5424.3344
-4745.231
-4078.5133
-3423.3765
-2779.5264
-2146.5571
-1523.0512
-908.31796
-301.49315
100733.72
100612.46
100346.45
99903.576
99264.252
98401.55
97278.985
95847.723
94042.622
91777.072
88937.294
85377.363
80917.665
75352.327
68475.492
60138.796
50345.925
39362.801
27768.12
16161.856
5128.0115
-4730.8271
-12986.414
-19518.869
-24443.155
-27993.872
-30430.383
-31991.429
-32876.505
-33244.508
-33219.445
-32897.381
-32352.58
-31642.439
-30811.324
-29893.495
-28915.348
-27897.164
-26854.507
-25799.239
-24740.295
-23684.291
-22636.031
-21599.096
-20576.056
-19568.66
-18578.03
-17604.808
-16649.085
-15710.647
-14789.459
-13885.688
-12999.452
-12130.794
-11279.738
-10446.251
-9629.6317
-8829.5024
-8045.5665
-7277.3871
-6524.4304
-5786.097
-5061.732
-4350.6218
-3651.9672
-2965.3128
-2289.8364
-1624.83
-969.07046
-321.66522
96664.014
96525.364
96230.431
95743.864
95045.375
94107.601
92894.119
91357.03
89433.577
87041.893
84076.69
80406.18
75872.834
70302.814
63531.793
55455.357
46105.334
35732.473
24836.599
13986.598
3675.9413
-5635.4077
-13579.427
-20016.145
-24996.177
-28684.488
-31287.784
-33011.722
-34038.613
-34520.757
-34581.56
-34319.434
-33812.195
-33120.994
-32293.701
-31367.621
-30371.683
-29328.241
-28254.517
-27163.68
-26065.694
-24967.98
-23875.935
-22793.623
-21724.023
-20669.219
-19630.611
-18609.089
-17605.15
-16618.86
-15649.98
-14698.444
-13764.405
-12847.988
-11949.27
-11068.409
-10204.945
-9358.3975
-8528.5836
-7715.142
-6917.5845
-6135.3344
-5367.7435
-4614.0989
-3873.6349
-3145.4862
-2429.0268
-1723.7944
-1028.2009
-341.31159
92599.126
92441.662
92115.114
91580.495
90816.903
89796.738
88483.99
86832.297
84782.255
82258.21
79165.42
75388.849
70795.967
65247.445
58621.224
50854.634
42002.803
32295.686
22153.082
12069.218
2454.5313
-6317.0447
-13929.314
-20233.03
-25230.119
-29026.347
-31779.488
-33661.424
-34834.838
-35442.724
-35605.557
-35422.315
-34973.014
-34321.594
-33518.764
-32604.445
-31609.839
-30559.215
-29471.365
-28360.743
-27238.357
-26112.487
-24989.212
-23873.104
-22767.595
-21675.152
-20597.503
-19535.825
-18490.879
-17463.105
-16452.597
-15459.174
-14482.813
-13523.699
-12581.999
-11657.97
-10751.487
-9862.0624
-8989.5862
-8133.8016
-7294.2967
-6470.545
-5661.9276
-4867.7428
-4087.2064
-3319.4504
-2563.8223
-1819.4399
-1085.421
-360.34237
88586.701
88409.995
88050.546
87465.621
86633.896
85527.819
84112.217
82342.916
80164.76
77509.475
74294.215
70421.99
65785.951
60280.436
53822.293
46384.547
38038.988
28993.201
19594.918
10240.473
1273.2321
-6979.1413
-14243.5
-20370.548
-25330.166
-29183.446
-32046.714
-34060.028
-35365.284
-36093.787
-36360.646
-36263.3
-35882.303
-35283.137
-34518.427
-33630.056
-32651.049
-31607.263
-30518.846
-29401.402
-28266.908
-27124.464
-25980.858
-24841.181
-23709.301
-22588.086
-21479.607
-20385.352
-19306.366
-18243.349
-17196.758
-16166.759
-15153.257
-14156.325
-13176.206
-12213.191
-11267.473
-10338.748
-9426.8893
-8531.776
-7653.0938
-6790.3886
-5943.0928
-5110.5382
-4291.965
-3486.5487
-2693.2875
-1911.4567
-1140.5312
-378.6892
84674.18
84478.926
84086.756
83451.509
82551.645
81360.022
79842.762
77958.486
75657.025
72878.26
69551.867
65599
60937.417
55492.045
49212.993
42101.404
34239.328
25811.601
17100.828
8408.9993
35.755882
-7721.2106
-14626.626
-20537.907
-25406.546
-29262.25
-32188.271
-34296.62
-35708.75
-36542.83
-36906.53
-36893.775
-36584.006
-36042.981
-35324.274
-34471.002
-33517.487
-32490.789
-31412.135
-30298.071
-29161.412
-28011.988
-26857.245
-25702.779
-24552.858
-23410.722
-22278.783
-21158.838
-20052.232
-18959.933
-17882.64
-16820.892
-15774.916
-14744.74
-13730.562
-12732.701
-11751.504
-10786.982
-9839.0455
-8907.6786
-7992.6723
-7093.6631
-6210.1527
-5341.5205
-4487.0336
-3645.8538
-2817.0444
-1999.826
-1193.238
-396.24234
80905.489
80693.255
80270.481
79587.353
78622.388
77349.151
75735.588
73743.693
71328.819
68439.363
65017.489
61001.644
56331.947
50959.65
44861.632
38059.533
30640.603
22763.996
14646.129
6539.6413
-1283.3796
-8568.3366
-15110.8
-20778.069
-25512.56
-29322.845
-32266.882
-34433.07
-35923.928
-36844.074
-37292.422
-37357.809
-37117.161
-36635.37
-35966.082
-35152.969
-34231.129
-33228.459
-32166.968
-31063.926
-29932.813
-28784.067
-27625.693
-26463.751
-25302.866
-24146.596
-22997.661
-21858.148
-20729.703
-19613.569
-18510.688
-17421.851
-16347.655
-15288.379
-14244.193
-13215.424
-12202.461
-11205.576
-10224.847
-9260.3158
-8311.883
-7379.2898
-6462.1214
-5559.8193
-4671.6951
-3796.9488
-2934.7021
-2083.9377
-1243.6772
-412.90636
77320.428
77092.635
76641.931
75914.446
74888.984
73540.228
71838.449
69749.439
67234.362
64250.118
60750.736
56690.303
52028.164
46736.919
40813.524
34292.391
27257.3
19845.096
12240.344
4662.3944
-2655.985
-9497.1789
-15682.982
-21092.012
-25663.581
-29392.599
-32318.243
-34509.69
-36052.696
-37038.819
-37557.685
-37692.082
-37515.353
-37090.638
-36470.925
-35699.872
-34812.903
-33838.408
-32798.942
-31712.284
-30592.397
-29450.182
-28294.075
-27130.532
-25964.499
-24799.804
-23639.41
-22485.67
-21340.497
-20205.411
-19081.594
-17970.071
-16871.685
-15787.082
-14716.645
-13660.643
-12619.502
-11593.633
-10583.302
-9588.6554
-8609.7028
-7646.2888
-6698.0879
-5764.61
-4845.2146
-3939.1311
-3045.4835
-2163.3167
-1291.4445
-428.91543
73957.192
73715.244
73239.116
72471.131
71390.569
69973.571
68192.967
66018.528
63417.232
60354.074
56793.798
52703.913
48059.392
42849.246
37084.948
30809.535
24105.143
17095.626
9942.5943
2834.9317
-4028.5127
-10461.291
-16307.877
-21458.592
-25853.311
-29478.557
-32359.888
-34551.227
-36124.019
-37157.86
-37733.249
-37926.53
-37806.869
-37435.03
-36862.796
-36133.369
-35282.122
-34337.706
-33323.003
-32256.123
-31151.344
-30019.875
-28870.462
-27709.862
-26543.29
-25374.814
-24207.589
-23044.164
-21886.695
-20736.949
-19596.354
-18466.149
-17347.398
-16240.993
-15147.663
-14067.834
-13001.882
-11950.303
-10913.505
-9891.7631
-8885.1968
-7893.7531
-6917.1985
-5955.1153
-5006.9128
-4071.8474
-3149.0482
-2237.5367
-1336.2058
-443.97276
70852.111
70598.308
70100.157
69296.502
68167.284
66690.194
64840.706
62592.528
59918.206
56790.203
53182.783
49074.943
44454.517
39323.494
33704.358
27646.457
21230.833
14571.533
7812.0208
1116.3577
-5344.691
-11410.358
-16944.579
-21848.921
-26065.837
-29577.052
-32398.449
-34572.095
-36157.558
-37223.919
-37843.19
-38085.385
-38015.319
-37691.007
-37162.669
-36472.737
-35656.316
-34742.106
-33753.145
-32707.748
-31620.377
-30502.417
-29362.802
-28208.496
-27044.903
-25876.263
-24705.919
-23536.579
-22370.578
-21209.882
-20056.153
-18910.833
-17775.192
-16650.344
-15537.255
-14436.67
-13349.056
-12274.881
-11214.659
-10168.787
-9137.4922
-8120.8227
-7118.6348
-6130.5831
-5156.1268
-4194.5501
-3244.9857
-2306.4351
-1377.7468
-457.85596
68037.353
67774.546
67258.406
66424.59
65253.846
63725.5
61817.638
59507.758
56773.59
53594.32
49952.505
45836.803
41245.512
36190.827
30703.561
24837.606
18672.879
12315.543
5894.5585
-445.95095
-6557.8645
-12301.231
-17556.457
-22235.219
-26283.395
-29680.259
-32434.933
-34580.416
-36166.649
-37253.763
-37906.223
-38188.174
-38160.222
-37877.522
-37388.577
-36734.854
-35951.078
-35065.823
-34102.177
-33078.568
-32009.557
-30906.611
-29778.74
-28632.989
-27474.878
-26308.77
-25138.169
-23965.931
-22794.495
-21625.98
-20462.247
-19304.942
-18155.524
-17015.302
-15885.45
-14766.969
-13660.573
-12566.753
-11486.039
-10418.928
-9365.7553
-8326.6632
-7301.5923
-6290.2642
-5292.1858
-4306.6687
-3332.8504
-2369.7015
-1416.028
-470.69677
65539.803
65271.127
64741.317
63883.125
62678.197
61107.539
59151.748
56791.874
54010.347
50792.254
47127.216
43011.882
38452.935
33470.496
28101.594
22403.256
16454.101
10353.768
4219.572
-1820.1897
-7635.2107
-13102.299
-18115.513
-22595.113
-26490.553
-29780.066
-32468.103
-34580.815
-36160.488
-37259.847
-37936.88
-38250.541
-38257.561
-38010.374
-37555.748
-36934.205
-36179.973
-35321.405
-34381.567
-33378.938
-32328.13
-31240.616
-30125.393
-28989.494
-27838.487
-26676.818
-25508.064
-24335.196
-23160.755
-21986.98
-20815.881
-19649.291
-18488.85
-17336.03
-16192.192
-15058.535
-13936.034
-12825.332
-11726.942
-10641.406
-9569.1591
-8510.4387
-7465.2559
-6433.3899
-5414.3884
-4407.5896
-3412.1479
-2426.9627
-1450.649
-482.18214
63380.378
63109.041
62569.847
61692.961
60460.978
58856.555
56862.664
54463.589
51645.887
48399.692
44720.506
40611.444
36085.809
31169.749
25904.85
20350.194
14582.962
8697.3678
2801.4241
-2988.9606
-8557.2918
-13793.664
-18603.086
-22912.905
-26675.882
-29869.974
-32496.4
-34576.189
-36145.648
-37251.527
-37946.445
-38284.936
-38320.317
-38102.568
-37676.957
-37083.084
-36354.639
-35519.741
-34601.394
-33618.079
-32584.411
-31511.827
-30409.237
-29283.646
-28140.611
-26984.552
-25819.066
-24647.188
-23471.559
-22294.525
-21118.208
-19944.605
-18775.555
-17612.64
-16457.349
-15311.086
-14175.021
-13050.024
-11936.666
-10835.432
-9746.8662
-8671.2924
-7608.7767
-6559.1516
-5521.9836
-4496.618
-3482.1117
-2477.3481
-1481.2761
-492.49889
61573.933
61303.046
60758.471
59868.165
58615.701
56985.313
54962.153
52533.35
49688.978
46423.348
42736.723
38637.337
34143.577
29286.085
24109.708
18674.777
13057.007
7346.1714
1642.9886
-3946.1857
-9315.422
-14365.051
-19008.594
-23179.078
-26832.099
-29945.678
-32518.789
-34568.659
-36127.012
-37235.896
-37943.628
-38301.129
-38358.849
-38164.722
-37762.769
-37191.749
-36484.897
-35670.125
-34770.348
-33804.026
-32785.723
-31726.788
-30636.081
-29520.541
-28385.615
-27235.649
-26074.217
-24904.372
-23728.838
-22550.069
-21370.209
-20191.106
-19015.015
-17844.335
-16679.924
-15523.449
-14376.274
-13239.478
-12113.814
-10999.811
-9898.0036
-8808.3337
-7731.2459
-6666.6883
-5614.182
-4572.9662
-3542.1435
-2520.9562
-1507.9451
-501.62304
60129.389
59861.834
59315.388
58416.294
57149.132
55499.616
53454.824
51004.301
48140.982
44862.506
41172.852
37084.159
32618.588
27810.041
22705.626
17366.318
11866.496
6292.4444
739.29268
-4693.7692
-9908.6548
-14813.316
-19327.674
-23389.111
-26955.476
-30004.973
-32535.008
-34560.024
-36108.307
-37218.327
-37935.079
-38306.657
-38381.288
-38205.322
-37821.725
-37268.619
-36578.909
-35780.358
-34895.805
-33943.642
-32938.354
-31891.213
-30811.035
-29704.623
-28577.288
-27433.266
-26276.067
-25108.717
-23933.728
-22753.838
-21571.981
-20389.321
-19208.282
-18031.499
-16860.025
-15695.595
-14539.684
-13393.502
-12257.924
-11133.567
-10020.954
-8920.0564
-7831.3826
-6754.877
-5689.7367
-4635.8939
-3592.1387
-2557.555
-1530.3769
-509.22123
59050.197
58788.443
58242.914
57338.817
56061.823
54398.99
52339.033
49873.413
46997.254
43710.686
40020.422
35941.411
31498.472
26727.762
21677.842
16409.965
10997.432
5523.9352
80.530124
-5238.6996
-10341.183
-15140.267
-19560.432
-23542.203
-27045.071
-30047.412
-32545.548
-34551.935
-36092.386
-37202.779
-37925.687
-38307.137
-38393.786
-38230.859
-37860.499
-37320.408
-36643.301
-35856.855
-34983.869
-34042.64
-33047.593
-32009.951
-30938.402
-29839.608
-28718.746
-27579.943
-26426.602
-25261.481
-24087.36
-22907.591
-21724.491
-20539.716
-19355.632
-18174.314
-16997.657
-15827.368
-14664.967
-13511.746
-12368.662
-11236.315
-10115.199
-9005.8018
-7908.3305
-6822.7233
-5748.2563
-4684.859
-3631.2757
-2586.1857
-1548.0339
-515.23611
58334.978
58080.643
57537.75
56631.426
55348.544
53677.315
51607.696
49132.506
46248.354
42957.041
39267.077
35195.224
30767.999
26022.952
21009.484
15788.938
10433.853
5026.1884
-345.65772
-5590.8687
-10620.357
-15350.936
-19710.039
-23640.213
-27102.006
-30073.878
-32551.429
-34545.812
-36081.216
-37191.827
-37918.635
-38306.334
-38400.602
-38245.943
-37883.979
-37352.195
-36683.218
-35904.714
-35039.475
-34105.729
-33117.843
-32086.989
-31021.704
-29928.504
-28812.451
-27677.62
-26527.038
-25363.673
-24191.189
-23012.117
-21828.188
-20641.918
-19455.62
-18271.45
-17091.389
-15917.204
-14750.459
-13592.513
-12444.416
-11306.818
-10180.203
-9065.0158
-7961.4658
-6869.5705
-5789.0221
-4719.0099
-3658.5367
-2606.2789
-1560.5484
-519.53693
57978.59
57731.129
57190.925
56284.02
54998.421
53323.096
51248.711
48768.808
45880.758
42587.195
38897.527
34829.413
30410.197
25678.085
20682.848
15485.841
10159.187
4783.962
-552.7134
-5761.5388
-10755.167
-15452.22
-19781.583
-23686.767
-27128.802
-30086.14
-32553.983
-34542.811
-36075.992
-37186.869
-37915.648
-38306.379
-38404.274
-38253.509
-37895.492
-37367.627
-36702.568
-35928.058
-35066.794
-34136.921
-33152.836
-32125.659
-31063.814
-29973.691
-28860.181
-27727.15
-26577.705
-25416.17
-24245.129
-23066.104
-21881.794
-20694.745
-19507.3
-18321.663
-17139.847
-15963.65
-14794.667
-13634.291
-12483.621
-11343.333
-10213.899
-9095.7679
-7989.1861
-6894.1415
-5810.2781
-4736.8532
-3672.8401
-2616.8583
-1567.1736
-521.80884
149600.48
149479.32
149229.13
148821.48
148252.98
147515.42
146595.87
145477.45
144140.49
142561.63
140715.83
138576.55
136118.83
133322.47
130173.54
126667.71
122811.81
118622.65
114126.33
109352.18
104335.3
99116.075