/*--------------------------------*- C++ -*----------------------------------*\
  =========                 |
  \\      /  F ield         | OpenFOAM: The Open Source CFD Toolbox
   \\    /   O peration     | Website:  https://openfoam.org
    \\  /    A nd           | Version:  12
     \\/     M anipulation  |
\*---------------------------------------------------------------------------*/
FoamFile
{
    format      ascii;
    class       volScalarField;
    location    "4";
    object      p;
}
// * * * * * * * * * * * * * * * * * * * * * * * * * * * * * * * * * * * * * //

dimensions      [0 2 -2 0 0 0 0];

internalField   nonuniform List<scalar> 
226563
(
308253.67
307998.73
307479.6
306633.19
305449.2
303908.19
301981.86
299634.79
296826.18
293509.94
289636.48
285155.01
280018.96
274190.15
267646.23
260381.58
252414.52
243783.49
234542.21
224754.96
214493.17
203841.68
192901.15
181785.94
170619.63
159519.55
148596.05
137945.36
127647.68
117765.05
108342.13
99409.602
90987.033
83084.624
75703.911
68838.774
62476.786
56600.943
51190.924
46223.933
41675.559
37520.386
33732.618
30286.488
27156.695
24318.561
21748.642
19424.854
17326.397
15433.718
13728.477
12193.14
10811.538
9569.1526
8452.5471
7449.2277
6547.7012
5737.3987
5008.7106
4352.2819
3759.5455
3223.0092
2735.4575
2290.0376
1880.2537
1499.8277
1142.7036
803.19358
476.19974
157.51725
307895.36
307669.05
307166.02
306329.68
305150.75
303610.83
301682.12
299329.41
296511.42
293181.67
289290.29
284786.52
279623.77
273764.35
267185.28
259882.08
251871.65
243191.54
233895.35
224047.8
213725.36
203016.52
192025.95
180871.59
169676.69
158560.43
147631.86
136986.53
126703.28
116842.88
107449.06
98551.392
90168.155
82308.22
74971.896
68151.986
61835.223
56003.919
50637.184
45711.852
41203.201
37085.63
33333.171
29920.023
26820.924
24011.358
21467.966
19168.752
17092.992
15221.255
13535.278
12017.634
10652.355
9425.0415
8322.3325
7331.8577
6442.2214
5642.9604
4924.5367
4277.6834
3693.9092
3165.7505
2686.0788
2248.1418
1845.5074
1471.9711
1121.5394
788.57692
467.96423
154.96781
307286.34
307058.78
306556.7
305722.93
304545.32
303003.69
301069.21
298705.63
295870.44
292515.94
288591.37
284045.74
278831.81
272912.1
266263.27
258880.74
250780.54
241998.76
232589.02
222620
212174.07
201348.75
190255.52
179017.86
167762.13
156608.67
145666.25
135028.7
124772.5
114956.03
105620.72
96793.665
88490.449
80717.122
73471.447
66744.026
60519.796
54779.638
49501.565
44661.588
40234.383
36193.864
32513.784
29168.284
26132.207
23381.248
20892.262
18643.418
16614.185
14785.343
13138.737
11657.26
10325.36
9128.8332
8054.5165
7090.2554
6224.8973
5448.2106
4750.6024
4123.0426
3557.3831
3046.2089
2582.5169
2159.7005
1771.475
1411.7839
1074.7898
755.02198
447.57573
148.08149
306372.03
306146.54
305645.1
304812.17
303633.74
302087.79
300143.93
297764.23
294904.2
291514.29
287541.92
282934.56
277644.11
271631.63
264873.54
257364.5
249119.68
240174.92
230586.18
220428.16
209793.33
198789.97
187540.74
176176.65
164828.99
153620.14
142658.4
132035.23
121823.59
112078.05
102836.04
94120.431
85942.462
78303.887
71198.537
64613.669
58531.532
52930.901
47788.228
43078.34
38774.979
34851.367
31280.983
28037.991
25097.38
22435.105
20028.332
17855.526
15896.435
14132.132
12544.753
11117.758
9836.0949
8685.8661
7654.2281
6729.3625
5900.5099
5157.6246
4491.1866
3892.6192
3354.1038
2868.3648
2428.5984
2028.4085
1661.7279
1322.7228
1005.7953
705.71487
417.96754
138.18415
305147.01
304924.19
304423.31
303590.24
302409.32
300856.67
298900.02
296499.24
293607.32
290171.83
286137.28
281448.36
276054
269913.61
263001.72
255312.26
246860.24
237683.09
227841.93
217421.16
206525.95
195279.72
183818.61
172284.62
160815.46
149536.11
138554.19
127957.73
117814.81
108174.14
99066.99
90510.007
82508.185
75057.363
68146.12
61757.245
55869.441
50458.853
45499.952
40966.035
36829.609
33063.224
29640.204
26534.786
23722.149
21178.607
18881.741
16810.431
14944.765
13266.299
11757.798
10403.416
9188.6209
8099.972
7125.0792
6252.5885
5472.2048
4774.0577
4149.011
3588.9902
3086.4614
2634.4205
2226.3364
1856.0922
1517.8987
1206.2137
915.7482
641.71724
379.51327
125.28239
303606.04
303385.34
302884.36
302050
300864.99
299303.52
297331
294904.58
291974
288483.03
284371.77
279580.24
274053.25
267746.15
260631.36
252701.16
243971.4
234483.72
224307.97
213542.25
202309.1
190750.39
179020.3
167273.92
155657.13
144297.91
133302.31
122753.51
112712.34
103219.24
94296.712
85952.772
78184.154
70979.163
64319.756
58183.293
52544.292
47375.796
42649.944
38338.176
34411.739
30842.709
27604.358
24671.037
22018.258
19622.813
17462.805
15517.547
13767.757
12195.787
10785.245
9521.0107
8389.1576
7376.8454
6472.2769
5664.677
4944.2569
4301.4478
3727.7101
3215.4137
2757.4025
2347.0259
1978.0996
1644.844
1341.8096
1063.7822
806.05615
563.81612
332.6498
109.59487
301740.12
301521
301019.32
300182.81
298992.62
297420.73
295429.91
292973.94
289998.45
286442.14
282239.25
277323.24
271632.46
265117.19
257744.96
249506.6
240419.84
230533.33
219930.03
208727.4
197070.71
185126.1
173068.87
161070.73
149286.64
137847.13
126855.17
116386.41
106491.55
97199.376
88520.693
80452.26
72980.444
66084.322
59738.11
53912.958
48578.77
43705.161
39261.622
35217.636
31543.477
28210.971
25193.419
22465.46
20003.117
17783.775
15786.057
13990.025
12377.485
10931.732
9637.254
8479.7447
7446.039
6524.034
5702.6453
4971.8171
4322.2336
3744.8394
3231.7986
2775.9366
2370.5451
2009.4012
1686.729
1397.145
1135.5948
897.28977
678.03498
472.91368
278.19155
91.4853
299538.26
299320.34
298817.72
297978.79
296783.02
295200.06
293189.49
290701.06
287675.3
284044.49
279735.02
274671.93
268785.03
262015.87
254326.46
245704.57
236171.17
225785.6
214649.51
202906.59
190732.77
178324.33
165883.32
153599.84
141638.56
130131.07
119174.21
108832.37
99141.88
90116.191
81750.916
74028.762
66923.588
60403.796
54434.885
48981.469
44008.577
39482.198
35369.054
31636.971
28255.691
25196.971
22434.33
19942.966
17699.564
15682.108
13870.092
12244.893
10789.51
9488.2297
8326.5336
7291.0719
6369.584
5550.8344
4824.564
4181.5119
3612.8246
3110.2592
2666.6591
2275.3513
1930.1411
1625.2964
1355.5037
1115.826
901.63166
708.81279
533.09322
370.0727
216.89166
71.139939
296988.36
296771.52
296268.2
295427.29
294226.51
292632.9
290602.49
288080.27
285000.4
281287.08
276857.19
271624.65
265507.24
258436.02
250363.29
241273.68
231192.54
220194.16
208405.92
196007.27
183214.25
170262.29
157384.41
144791.72
132657.34
121110.72
110237.86
100086.48
90673.619
81992.752
74020.664
66723.143
60059.635
53986.687
48460.649
43439.428
38883.198
34754.376
31017.238
27638.578
24587.96
21837.33
19360.78
17134.327
15135.332
13342.767
11737.672
10302.855
9022.5066
7882.0652
6868.1578
5968.5227
5171.9312
4468.1168
3847.7434
3302.4063
2823.8168
2404.6782
2038.4769
1719.1311
1441.0175
1198.9414
988.10001
804.04361
642.64264
500.41537
372.93026
256.66812
149.40723
48.76318
294078.06
293862.41
293359.11
292517.37
291313.13
289710.64
287661.88
285106.3
281970.43
278168.92
273606.53
268183.11
261801.34
254376.3
245849.07
236198.37
225455.58
213715.59
201141.07
187958.83
174438.24
160863.09
147503.87
134592.26
122306.99
110770.18
100050.02
90170.54
81123.614
72878.03
65387.784
58599.125
52455.572
46901.208
41883.129
37352.7
33265.568
29581.058
26261.789
23274.154
20587.921
18175.693
16012.544
14075.372
12342.613
10795.029
9415.3557
8187.7945
7097.8972
6132.437
5279.3181
4527.4868
3866.8473
3288.1924
2783.2004
2344.2937
1963.9576
1635.8463
1354.1193
1113.3407
908.50187
734.98597
588.53469
465.20111
361.6072
274.29316
199.25472
134.08309
76.54854
24.623524
290795.22
290581.09
290078.91
289238.21
288033.05
286424.63
284360.61
281774.07
278582.9
274690.25
269986.48
264353.62
257674
249843.47
240785.42
230471.39
218940.18
206314.24
192804.18
178699.68
164339.31
150067.19
136194.63
122973.5
110580.7
99120.747
88636.362
79123.259
70542.609
62832.587
55920.181
49729.48
44186.797
39223.411
34777.363
30794.038
27225.326
24028.354
21164.962
18601.771
16309.321
14261.321
12434.17
10806.17
9357.7893
8071.8419
6932.7418
5926.2279
5039.4169
4260.5761
3578.9914
2984.9182
2469.4764
2024.5898
1642.9659
1317.8201
1042.7292
812.18213
621.03383
464.54034
338.3411
238.42908
161.11912
103.01673
61.47526
32.885918
14.129127
3.5743956
-0.93635483
-1.0287118
287128.45
286916.3
286416.67
285579.44
284376.59
282766.33
280691.6
278078.61
274835.6
270852.68
266002.58
260145.55
253138.95
244851.3
235184.31
224097.49
211638.91
197967.99
183360.17
168187.63
152877.2
137843.54
123443.42
109933.66
97481.142
86173.949
76026.926
66996.678
59001.384
51940.709
45710.328
40210.391
35349.693
31047.216
27233.08
23848.004
20841.366
18169.199
15793.703
13682.555
11807.703
10144.584
8671.6328
7369.1305
6219.8389
5208.591
4321.634
3546.6352
2872.5451
2289.2672
1787.5267
1358.9726
995.99702
691.68574
439.77489
234.408
70.286357
-57.339895
-152.86459
-220.31722
-263.38941
-285.46315
-289.63443
-278.72643
-254.81981
-221.23746
-180.37248
-133.44246
-82.215579
-27.918317
283067.61
282857.98
282362.49
281531.31
280334.48
278727.16
276647.51
274014.58
270726.22
266657.57
261661.34
255571.47
248213.44
239422.63
229069.04
217096.33
203563.38
188678
172802.23
156416.19
140052.12
124205.14
109258.21
95476.785
83034.739
71996.371
62326.58
53922.497
46647.099
40355.642
34910.759
30189.082
26083.476
22501.706
19368.359
16621.562
14209.751
12089.447
10224.533
8584.6155
7143.853
5880.1496
4774.164
3808.4908
2968.3562
2240.7643
1614.1263
1078.1995
623.72625
242.23909
-73.869167
-331.41494
-536.7091
-695.48706
-812.95748
-893.96955
-942.79386
-963.37597
-959.34348
-934.00872
-890.38818
-831.23632
-759.0701
-675.92204
-583.77135
-485.5555
-382.40009
-275.59609
-166.45258
-55.765156
278604.31
278397.66
277907.77
277085.11
275897.96
274298.62
272220.54
269575.58
266250.64
262104.79
256967.79
250643.27
242918.97
233586.26
222475.89
209507.49
194752.11
178481.05
161169.81
143434.69
125917.81
109189.32
93666.839
79666.392
67359.506
56751.927
47729.074
40110.777
33696.33
28293.174
23730.175
19862.083
16567.302
13747.729
11326.881
9242.698
7444.0363
5889.7425
4546.4768
3386.6007
2387.1614
1528.9241
795.00592
170.90734
-355.56868
-795.09455
-1157.0887
-1449.8791
-1680.9337
-1856.9521
-1983.8383
-2067.0209
-2111.4528
-2121.5811
-2101.5327
-2055.1595
-1985.7347
-1896.392
-1790.0024
-1669.1648
-1536.2316
-1393.3284
-1242.3801
-1084.632
-922.27439
-757.27424
-589.95103
-421.51989
-252.84725
-84.306734
273732.67
273529.22
273045.96
272233.72
271059.32
269472.37
267402
264753.14
261401.71
257189.79
251922.87
245370.35
237275.07
227376.94
215453.94
201393.82
185280.43
167464.58
148567.09
129341.6
110550.27
92860.813
76781.904
62685.142
50693.532
40715.923
32530.391
25863.377
20443.691
16030.185
12421.498
9455.2337
7002.9659
4966.6713
3270.1217
1852.8627
667.74225
-321.60682
-1145.5636
-1828.2974
-2389.404
-2845.1562
-3209.5222
-3493.9883
-3708.2435
-3860.657
-3958.5172
-4008.2016
-4015.3568
-3984.9909
-3921.5697
-3829.1546
-3711.3314
-3571.3697
-3412.3395
-3237.0424
-3047.7627
-2846.8477
-2636.4267
-2418.405
-2194.4884
-1966.1921
-1734.8715
-1501.2046
-1267.0223
-1033.6636
-800.99198
-569.81438
-340.58028
-113.27373
268450.18
268249.76
267773.43
266972.39
265812.28
264240.31
262181.93
259535.75
256167.15
251901.68
246519.42
239753.41
231297.44
220829.01
208063.56
192845.6
175269.26
155780.99
135155.4
114297.83
94137.531
75462.383
58929.543
44921.008
33464.897
24331.408
17164.674
11586.86
7256.5504
3891.0874
1267.898
-783.42924
-2391.2644
-3651.7617
-4637.6685
-5404.0378
-5991.986
-6433.9114
-6755.5081
-6976.223
-7112.611
-7177.8939
-7182.9554
-7136.549
-7045.9776
-6917.4299
-6756.1766
-6566.7594
-6353.123
-6118.7307
-5866.646
-5599.6159
-5320.0813
-5030.273
-4732.2387
-4427.7847
-4118.3187
-3805.3716
-3490.3361
-3174.458
-2858.8175
-2544.3514
-2231.8654
-1921.5375
-1614.7139
-1312.2657
-1013.6074
-719.12059
-428.8469
-142.40065
262758.72
262560.59
262090.32
261299.41
260152.46
258594.87
256549.17
253908.53
250529
246220.61
240739.42
233781.88
224989.06
213971.95
200372.47
183980.77
164894.95
143662.09
121213.42
98659.916
77101.527
57509.675
40694.956
26999.905
16304.556
8201.7018
2184.5152
-2228.737
-5439.5694
-7759.2464
-9419.7073
-10590.474
-11394.596
-11921.643
-12237.265
-12389.917
-12415.78
-12342.691
-12190.929
-11976.456
-11712.008
-11407.411
-11070.955
-10708.983
-10326.668
-9928.249
-9517.2141
-9096.4736
-8668.4784
-8235.3232
-7798.8256
-7360.5809
-6921.9909
-6484.3105
-6048.7219
-5616.1877
-5187.3379
-4762.9525
-4343.7422
-3930.2866
-3523.0706
-3122.4816
-2728.8084
-2341.7581
-1962.2046
-1590.5957
-1225.9091
-868.11534
-516.86682
-171.43042
256665.89
256468.51
256001.81
255217.3
254078.78
252530.51
250492.79
247854.57
244464.25
240118.95
234553.09
227429.03
218338.14
206823.25
192449.81
174945.18
154400.13
131458.6
107230.46
83029.334
60137.311
39806.485
22937.169
9778.9304
19.54002
-6948.5041
-11782.272
-15052.601
-17202.054
-18553.999
-19337.749
-19714.289
-19796.91
-19666.066
-19379.569
-18979.513
-18496.903
-17954.789
-17370.315
-16756.682
-16123.165
-15476.981
-14823.53
-14167.133
-13511.247
-12858.499
-12210.913
-11570.058
-10937.153
-10313.164
-9698.8718
-9094.9119
-8501.8056
-7919.9826
-7349.869
-6791.6867
-6245.3998
-5711.1771
-5189.1168
-4679.2101
-4181.3853
-3695.4928
-3221.3352
-2758.1774
-2306.4688
-1866.2432
-1436.0643
-1015.5157
-603.88327
-200.11386
250186.46
249987.34
249519.74
248734.83
247595.75
246046.22
244005.03
241358.2
237948.76
233564.05
227921.55
220656.07
211316.03
199386.06
184360.43
165903.3
144089.92
119648.5
93865.266
68211.15
44217.157
23413.559
6725.0891
-5736.1094
-14498.812
-20364.94
-24117.13
-26385.576
-27630.283
-28170.738
-28224.632
-27940.292
-27420.016
-26735.532
-25938.009
-25064.533
-24142.177
-23190.856
-22225.315
-21256.419
-20292.002
-19337.688
-18396.899
-17472.079
-16565.007
-15677.212
-14809.619
-13962.793
-13137.035
-12332.457
-11549.054
-10786.727
-10045.31
-9324.5792
-8624.349
-7944.2393
-7283.6499
-6642.2087
-6019.5065
-5415.057
-4828.2983
-4258.6092
-3705.3329
-3167.3179
-2644.6335
-2136.9059
-1642.3164
-1160.0878
-689.16786
-228.21113
243343.91
243139.91
242665.01
241869.68
240716.67
239149.42
237085.9
234410.57
230963.5
226526.31
220805.83
213418.71
203885.42
191649.33
176153.77
157013.05
134286.57
108770.43
81853.944
55141.453
30449.911
9485.6618
-6838.7047
-18572.484
-26445.988
-31412.205
-34329.496
-35851.415
-36433.253
-36380.49
-35896.271
-35117.176
-34137.052
-33021.928
-31819.238
-30563.59
-29280.28
-27987.921
-26700.235
-25427.198
-24175.838
-22950.959
-21755.596
-20591.272
-19458.614
-18357.9
-17289.421
-16253.097
-15248.636
-14275.608
-13333.491
-12421.697
-11539.587
-10686.475
-9861.7298
-9064.5015
-8293.7482
-7548.6714
-6828.4362
-6132.1384
-5458.8159
-4807.4624
-4177.0178
-3565.9614
-2974.0012
-2400.3977
-1843.0003
-1300.6625
-772.02968
-255.49498
236170.87
235957.83
235467.29
234648.62
233464.35
231857.72
229746.38
227014.55
223501.78
218988.33
213177.93
205681.53
196009.86
183591.9
167851
148380.8
125233.92
99240.731
71828.168
44696.666
19823.999
-991.86868
-16879.77
-28031.276
-35307.35
-39728.365
-42169.85
-43275.639
-43484.404
-43086.485
-42274.393
-41178.451
-39889.451
-38472.424
-36974.915
-35432.145
-33870.093
-32308.018
-30760.17
-29236.913
-27745.519
-26290.877
-24875.92
-23502.296
-22170.662
-20880.737
-19632.01
-18424.079
-17256.404
-16128.312
-15039.049
-13987.786
-12973.631
-11995.631
-11052.885
-10144.224
-9268.2673
-8423.9101
-7609.9832
-6825.2469
-6068.4055
-5338.124
-4633.021
-3951.4586
-3292.4558
-2654.6401
-2036.553
-1436.1537
-851.82863
-281.75486
228710.63
228482.86
227966.8
227109.81
225874.15
224202.79
222013.54
219191.42
215577.79
210955.94
205034.45
197431.72
187669.5
175191.88
159440.86
140027.28
117014.37
91227.7
64108.324
37349.117
12874.879
-7524.2608
-23036.029
-33908.381
-41004.353
-45313.435
-47675.315
-48706.519
-48828.907
-48324.753
-47384.404
-46139.56
-44684.213
-43087.269
-41400.142
-39661.509
-37900.284
-36138.099
-34391.1
-32671.124
-30986.597
-29343.259
-27744.641
-26192.847
-24688.938
-23233.233
-21825.189
-20464.038
-19149.167
-17879.967
-16655.714
-15475.582
-14338.642
-13243.863
-12190.235
-11176.441
-10200.866
-9262.1845
-8358.9902
-7489.7848
-6653.0096
-5847.0615
-5070.3019
-4321.0428
-3597.3631
-2898.0001
-2221.6464
-1565.5888
-927.98095
-306.79757
221020.34
220771.91
220220.05
219309.12
218000.93
216238.1
213938.92
210990.19
207237.17
202470.35
196410.61
188696.26
178879.4
166447.18
150895.48
131889.54
109519.3
84570.491
58475.65
32809.284
9282.7028
-10472.675
-25715.263
-36625.819
-43936.487
-48519.048
-51139.635
-52379.527
-52649.949
-52234.447
-51329.792
-50075.835
-48574.783
-46903.091
-45118.737
-43265.871
-41377.89
-39479.984
-37591.118
-35725.352
-33892.875
-32100.84
-30353.856
-28654.908
-27005.827
-25407.579
-23860.531
-22364.354
-20918.432
-19522.282
-18175.477
-16877.418
-15627.343
-14424.318
-13267.359
-12155.198
-11086.072
-10058.514
-9070.9603
-8121.7314
-7209.0671
-6331.1506
-5486.1227
-4672.0803
-3886.8187
-3128.9922
-2397.0791
-1688.0999
-999.96364
-330.44912
213171.25
212896.96
212299.74
211320.18
209919.4
208039.7
205600.13
202490.21
198561.06
193614.06
187388.77
179553.61
169706.28
157398.01
142204.33
123867.71
102514.13
78870.114
54276.695
30163.86
7970.9353
-10964.402
-25965.438
-37079.231
-44833.473
-49923.477
-53015.185
-54645.711
-55218.116
-55022.656
-54267.843
-53105.716
-51649.43
-49984.804
-48177.594
-46278.29
-44325.404
-42348.177
-40368.769
-38403.776
-36465.385
-34562.409
-32700.804
-30884.662
-29116.836
-27399.259
-25733.192
-24119.408
-22558.092
-21049.045
-19592.127
-18187.19
-16833.822
-15531.353
-14278.914
-13075.454
-11919.233
-10808.636
-9742.0347
-8717.6331
-7733.5252
-6787.7342
-5878.2337
-5002.9548
-4159.6557
-3346.6048
-2561.7624
-1802.9544
-1067.3547
-352.57195
205245.76
204941.25
204290.62
203230.04
201719.75
199701.83
197096.52
193797.01
189662.08
184507.12
178095.26
170132.17
160270.85
148138.24
133401.13
115887.37
95757.721
73668.415
50788.416
28414.326
7720.8634
-10272.584
-24951.641
-36248.016
-44478.843
-50142.974
-53783.188
-55882.192
-56830.209
-56923.209
-56382.357
-55373.033
-54020.085
-52418.945
-50643.097
-48749.193
-46780.671
-44770.665
-42744.386
-40720.838
-38714.12
-36734.596
-34789.552
-32884.25
-31022.653
-29207.818
-27442.149
-25727.547
-24065.463
-22456.76
-20901.783
-19400.777
-17953.855
-16560.745
-15220.83
-13933.301
-12696.651
-11509.132
-10369.103
-9274.6992
-8223.9152
-7214.6568
-6244.7766
-5312.0909
-4414.3924
-3549.304
-2714.9648
-1909.5719
-1129.7847
-373.03996
197334.41
196996.63
196286.98
195136.45
193504.48
191333.19
188544.57
185036.47
180677.01
175297.99
168689.38
160598.03
150736.23
138809.35
124574.73
107940.42
89094.883
68619.319
47490.623
26845.774
7641.2131
-9347.5122
-23573.934
-34909.02
-43512.582
-49694.331
-53856.75
-56420.868
-57755.676
-58156.693
-57854.123
-57025.33
-55806.346
-54301.744
-52592.101
-50739.51
-48791.642
-46784.91
-44747.021
-42698.919
-40656.208
-38630.427
-36629.942
-34660.992
-32728.555
-30836.848
-28989.575
-27190.003
-25440.937
-23744.654
-22102.705
-20515.917
-18984.831
-17509.685
-16090.232
-14725.916
-13415.573
-12157.426
-10949.813
-9790.8211
-8678.3755
-7610.2996
-6584.3583
-5598.282
-4649.783
-3736.4892
-2856.4241
-2007.395
-1186.9011
-391.73492
189532.81
189160.39
188388.83
187143.59
185383.5
183051.15
180070.93
176346.4
171756.39
166150.78
159348.06
151137.29
141289.39
129584.15
115860.8
100095.35
82494.307
63567.697
44120.628
25082.336
7256.8749
-8720.2762
-22386.852
-33578.211
-42371.363
-48935.429
-53538.031
-56517.452
-58210.647
-58907.086
-58840.841
-58197.485
-57122.582
-55729.095
-54104.129
-52314.557
-50411.532
-48433.978
-46411.382
-44365.934
-42314.099
-40267.998
-38236.569
-36226.597
-34243.788
-32293.445
-30380.687
-28510.382
-26686.956
-24914.217
-23195.208
-21531.964
-19925.578
-18376.669
-16885.41
-15451.506
-14074.178
-12751.797
-11482.578
-10264.582
-9095.6716
-7973.6154
-6896.121
-5860.8573
-4865.4958
-3907.7733
-2985.2996
-2096.1788
-1238.5019
-408.57961
181937.27
181530.53
180697.1
179356.87
177468.33
174975.01
171804.43
167866.79
163052.68
157230.97
150248.89
141936.55
132119.53
120643.95
107418.32
92471.977
76020.311
58508.336
40591.083
22999.125
6426.8853
-8580.1748
-21637.168
-32543.022
-41330.301
-48103.452
-53027.398
-56350.282
-58355.593
-59316.982
-59469.53
-59003.023
-58069.592
-56789.309
-55255.345
-53539.081
-51694.743
-49763.212
-47775.097
-45753.107
-43713.826
-41669.169
-39627.804
-37596.417
-35580.962
-33587.641
-31623.169
-29694.332
-27807.48
-25968.208
-24181.119
-22449.662
-20775.969
-19161.082
-17605.467
-16109.097
-14671.465
-13291.241
-11966.518
-10695.239
-9475.1925
-8304.1293
-7179.7316
-6099.608
-5061.376
-4062.7746
-3101.6408
-2176.1976
-1284.3646
-423.47008
174639.74
174200.47
173308.35
171877.43
169866
167218.98
163867.75
159729.98
154708.66
148691.83
141554.59
133165.27
123398.19
112155.84
99402.215
85205.651
69782.9
53517.724
36931.474
20622.581
5188.9838
-8911.3433
-21343.777
-31885.89
-40528.83
-47354.919
-52466.864
-56041.472
-58303.602
-59493.355
-59838.691
-59532.967
-58731.384
-57559.102
-56114.622
-54473.755
-52693.863
-50817.689
-48876.614
-46893.309
-44883.679
-42858.485
-40825.016
-38788.888
-36755.509
-34731.75
-32726.405
-30748.725
-28807.363
-26909.952
-25062.806
-23270.731
-21536.969
-19863.263
-18250.336
-16698.377
-15207.094
-13775.458
-12401.476
-11082.75
-9816.9663
-8601.953
-7435.4321
-6314.9236
-5237.9231
-4202.193
-3205.8765
-2247.2955
-1324.8449
-436.35501
167725.3
167256.05
166310.42
164796.17
162671.63
159883.59
156367.94
152050.3
146846.27
140662.55
133400.33
124962.18
115264.15
104254.49
91939.431
78413.144
63883.863
48682.199
33244.829
18074.255
3660.3367
-9608.231
-21424.229
-31568.49
-39989.537
-46755.344
-51945.314
-55679.9
-58135.342
-59514.506
-60024.755
-59858.757
-59175.747
-58102.453
-56741.508
-55172.935
-53457.535
-51640.288
-49753.505
-47819.566
-45853.046
-43862.436
-41852.06
-39825.188
-37785.206
-35739.294
-33699.954
-31680.091
-29690.983
-27742.342
-25842.174
-23996.544
-22209.607
-20483.874
-18820.453
-17219.602
-15681.285
-14204.856
-12788.086
-11427.834
-10121.664
-8867.7592
-7664.0333
-6507.8103
-5396.2293
-4327.005
-3298.5819
-2309.9079
-1359.9864
-447.63216
161272.47
160776.61
159783.93
158195.86
155971
153058.39
149398.71
144925.7
139567.28
133247.72
125891.71
117431.42
107817.26
97033.254
85116.355
72176.962
58414.946
44123.765
29677.118
15496.171
1977.1769
-10541.663
-21771.819
-31509.63
-39672.008
-46310.946
-51500.383
-55321.215
-57910.323
-59437.753
-60086.696
-60038.456
-59456.669
-58471.488
-57185.899
-55683.626
-54029.155
-52270.396
-50441.211
-48563.98
-46651.634
-44709.219
-42735.294
-40729.737
-38696.157
-36638.972
-34572.191
-32515.377
-30483.291
-28487.791
-26538.702
-24643.459
-22807.167
-21033.048
-19322.844
-17677.128
-16096.146
-14580.503
-13127.658
-11731.991
-10390.548
-9102.681
-7866.8802
-6680.0301
-5538.3005
-4439.224
-3381.7398
-2365.4072
-1390.4607
-457.38386
155351.72
154834
153802.54
152152.24
149842.03
146823.38
143041.84
138439.12
132954.88
126529.45
119108.23
110648.37
101128.16
90559.253
79000.98
66574.288
53471.466
39956.846
26354.297
13011.554
260.78335
-11590.976
-22280.673
-31621.941
-39517.724
-46000.67
-51139.518
-54993.086
-57667.656
-59305.545
-60067.693
-60119.39
-59620.186
-58708.288
-57488.899
-56045.558
-54446.497
-52743.256
-50972.315
-49157.005
-47309.023
-45429.63
-43508.477
-41533.454
-39504.793
-37437.277
-35350.679
-33264.611
-31196.986
-29162.143
-27171.322
-25232.991
-23353.194
-21535.961
-19783.687
-18097.402
-16477.078
-14922.073
-13430.401
-11998.774
-10624.759
-9307.2343
-8045.2948
-6834.193
-5667.219
-4542.0102
-3458.6582
-2417.1175
-1418.6304
-466.58331
150022.34
149488.41
148427.51
146727.58
144347.85
141242.25
137361.19
132654.02
127071.28
120567.63
113106.31
104665.2
95244.767
84877.758
73639.543
61657.478
49116.314
36256.449
23355.906
10709.325
-1386.9024
-12654.879
-22859.819
-31831.134
-39471.017
-45792.617
-50854.828
-54706.28
-57430.499
-59147.524
-59999.029
-60135.347
-59705.619
-58850.14
-57684.063
-56291.777
-54741.703
-53089.657
-51376.087
-49626.834
-47853.878
-46049.502
-44185.015
-42238.421
-40216.619
-38143.066
-36039.915
-33930.159
-31833.572
-29766.099
-27740.218
-25765.328
-23848.258
-21993.731
-20204.682
-18482.561
-16827.475
-15238.457
-13713.792
-12251.213
-10848.518
-9503.6974
-8214.2868
-6976.2078
-5784.8529
-4637.5546
-3532.9918
-2470.3212
-1450.8473
-478.00224
145330.65
144786.68
143706.01
141969.11
139535.34
136361.11
132401.49
127613.04
121956.11
115397.91
107916.69
99507.165
90187.184
80005.279
69047.999
57445.886
45375.738
33052.866
20723.531
8654.4177
-2888.2077
-13656.361
-23439.523
-32081.325
-39486.954
-45654.974
-50632.945
-54462.677
-57211.941
-58983.735
-59903.883
-60109.582
-59740.062
-58929.761
-57801.512
-56449.317
-54941.577
-53335.871
-51678.173
-49998.801
-48311.496
-46585.028
-44769.822
-42846.244
-40832.51
-38754.42
-36638.546
-34510.176
-32390.512
-30296.637
-28242.002
-26236.825
-24288.626
-22402.715
-20582.502
-18829.801
-17145.048
-15527.39
-13975.159
-12486.434
-11059.16
-9690.9927
-8379.0938
-7119.9272
-5909.831
-4746.226
-3628.1332
-2555.9854
-1528.1836
-509.75005
141309.18
140761.55
139670.55
137908.6
135435.03
132208.62
128188.94
123339.11
117628.19
111034.06
103547.36
95176.198
85951.603
75933.763
65216.222
53928.692
42238.973
30348.836
18486.069
6892.4358
-4191.7457
-14543.031
-23970.813
-32330.921
-39532.401
-45563.633
-50461.086
-54260.498
-57019.208
-58827.695
-59799.29
-60060.186
-59740.843
-58969.555
-57867.86
-56542.292
-55068.274
-53503.973
-51900.811
-50296.345
-48695.861
-47041.178
-45267.601
-43360.948
-41352.915
-39271.208
-37145.725
-35003.107
-32865.516
-30750.855
-28673.31
-26643.804
-24670.434
-22758.974
-20913.237
-19135.4
-17426.22
-15785.149
-14210.593
-12700.671
-11253.46
-9866.5234
-8537.0413
-7261.8473
-6037.7748
-4862.4672
-3734.9955
-2654.2747
-1612.4325
-562.94761
137976.06
137431.61
136339.27
134562.92
132061.85
128797.23
124732.84
119837.72
114088.37
107471.55
99987.894
91655.511
82514.844
72633.711
62110.125
51074.582
39689.815
28146.935
16658.222
5446.231
-5269.1572
-15283.851
-24423.012
-32552.465
-39584.949
-45501.83
-50329.189
-54097.066
-56856.296
-58688.536
-59697.647
-60001.016
-59721.733
-58982.872
-57902.502
-56591.633
-55140.522
-53612.292
-52062.908
-50541.464
-49022.725
-47422.643
-45675.27
-43782.667
-41777.787
-39693.359
-37560.957
-35407.914
-33256.993
-31126.643
-29031.523
-26982.686
-24988.883
-23057.517
-21191.799
-19394.226
-17665.823
-16006.345
-14414.52
-12888.571
-11426.461
-10025.156
-8682.4264
-7395.3906
-6160.8341
-4976.0297
-3839.3003
-2747.1949
-1686.7538
-603.82485
135336.23
134801.53
133715.77
131933.97
129415.47
126123.81
122026.75
117098.51
111321.74
104690.13
97211.681
88912.287
79839.835
70067.65
59697.119
48858.791
37711.243
26437.437
15237.837
4320.5081
-6110.1145
-15864.602
-24780.155
-32730.43
-39631.332
-45459.1
-50230.306
-53970.031
-56725.5
-58572.469
-59607.926
-59942.504
-59693.491
-58979.641
-57916.355
-56613.831
-55174.746
-53675.74
-52179.591
-50742.119
-49295.726
-47736.705
-45998.526
-44112
-42108.102
-40021.664
-37884.675
-35724.542
-33563.751
-31421.201
-29313.303
-27250.699
-25242.578
-23296.559
-21416.069
-19603.827
-17861.088
-16187.868
-14583.189
-13045.236
-11571.785
-10160.059
-8807.9319
-7512.2935
-6269.3365
-5076.7474
-3931.3403
-2827.0237
-1748.419
-635.96139
133383.88
132864.96
131791.94
130011.01
127482.17
124171.64
120050.86
115098.42
109301.81
102660
95186.567
86913.048
77892.364
68201.736
57944.699
47251.494
36277.6
25199.996
14210.556
3506.9647
-6717.3623
-16283.507
-25037.377
-32858.459
-39665.283
-45429.787
-50160.058
-53877.575
-56628.049
-58483.593
-59536.469
-59892.408
-59664.397
-58967.767
-57916.015
-56619.123
-55184.473
-53709.589
-52274.837
-50910.57
-49512.703
-47970.819
-46236.448
-44350.382
-42346.009
-40258.255
-38118.592
-35953.558
-33785.895
-31636.139
-29520.079
-27448.849
-25431.823
-23475.708
-21585.062
-19762.7
-18010.031
-16327.253
-14713.455
-13166.78
-11685.051
-10266.209
-8907.5014
-7605.6383
-6356.8569
-5158.1897
-4005.2635
-2890.0944
-1796.6079
-661.09414
132103.91
131605.68
130548.28
128771.21
126236.57
122913.41
118776.32
113807.19
107996.92
101348.08
93877.951
85621.677
76635.362
66998.647
56816.262
46218.085
35357.484
24407.451
13554.22
2988.7693
-7102.5244
-16547.512
-25197.782
-32936.789
-39685.372
-45411.29
-50115.485
-53817.836
-56563.949
-58423.973
-59487.196
-59856.097
-59640.693
-58953.837
-57907.753
-56612.866
-55179.7
-53723.669
-52354.356
-51044.531
-49672.564
-48124.22
-46388.749
-44500.695
-42495.368
-40407.034
-38265.79
-36097.928
-33927.796
-31775.192
-29654.63
-27578.344
-25555.723
-23593.658
-21696.913
-19868.456
-18109.765
-16421.132
-14801.762
-13249.898
-11763.41
-10340.058
-8977.0415
-7671.1599
-6418.8624
-5215.8131
-4057.2475
-2934.3514
-1830.4541
-679.22668
131473.6
130995.57
129951.19
128177.57
125639.99
122309.84
118163.7
113185.34
107367.49
100714.53
93245.587
84997.567
76028.113
66417.984
56272.415
45721.042
34916.125
24028.619
13241.982
2744.012
-7282.3818
-16668.525
-25268.863
-32968.831
-39690.456
-45398.357
-50089.847
-53784.927
-56529.232
-58391.826
-59460.377
-59835.591
-59625.808
-58942.445
-57896.845
-56599.69
-55164.571
-53721.859
-52414.276
-51139.757
-49770.75
-48199.589
-46457.395
-44567.711
-42562.301
-40473.876
-38331.698
-36163.991
-33994.305
-31840.65
-29718.591
-27640.424
-25615.605
-23651.122
-21751.818
-19920.724
-18159.375
-16468.113
-14846.223
-13292.01
-11803.341
-10377.93
-9013.0211
-7705.3477
-6451.1094
-5245.824
-4084.4035
-2957.5277
-1848.2792
-689.36531
308840.14
308572.92
308052.91
307214.34
306044.34
304521.81
302617.27
300294.13
297511.61
294222.5
290377.56
285925.16
280818.31
275019.62
268504.77
261267.85
253324.89
244710.92
235480.1
225693.29
215424.64
204759.34
193797.81
182657.32
171459.4
160323.95
149360.87
138667.74
128325.69
118397.33
108927.9
99948.734
91480.301
83533.855
76111.526