/*--------------------------------*- C++ -*----------------------------------*\
  =========                 |
  \\      /  F ield         | OpenFOAM: The Open Source CFD Toolbox
   \\    /   O peration     | Website:  https://openfoam.org
    \\  /    A nd           | Version:  12
     \\/     M anipulation  |
\*---------------------------------------------------------------------------*/
FoamFile
{
    format      ascii;
    class       volScalarField;
    location    "1";
    object      p;
}
// * * * * * * * * * * * * * * * * * * * * * * * * * * * * * * * * * * * * * //

dimensions      [0 2 -2 0 0 0 0];

internalField   nonuniform List<scalar> 
226563
(
15857.305
15833.969
15781.506
15694.187
15572.197
15415.808
15225.406
15001.54
14744.901
14456.349
14136.97
13788.103
13411.356
13008.616
12582.067
12134.184
11667.723
11185.693
10691.304
10187.909
9678.9514
9167.8986
8658.1738
8153.0826
7655.7463
7169.0384
6695.5326
6237.4651
5796.7166
5374.8148
4972.9233
4591.8414
4232.0486
3893.7263
3576.7749
3280.8636
3005.4691
2749.9109
2513.3836
2294.989
2093.7662
1908.7164
1738.8224
1583.0634
1440.4283
1309.926
1190.5982
1081.5323
981.8666
890.78958
807.53906
731.39127
661.68809
597.82681
539.23383
485.3805
435.78101
389.9896
347.59894
308.19526
271.43942
237.03626
204.66081
174.02517
144.86193
116.9185
89.953818
63.735338
38.034992
12.642955
15863.329
15839.99
15787.518
15700.182
15578.16
15421.721
15231.242
15007.256
14750.438
14461.641
14141.941
13792.664
13415.406
13012.051
12584.778
12136.069
11668.688
11185.662
10690.223
10185.746
9675.7023
9163.5903
8652.8627
8146.8532
7648.7062
7161.3128
6687.2577
6228.7812
5787.7608
5365.7197
4963.8155
4582.8341
4223.2381
3885.1917
3568.5816
3273.0625
2998.0976
2742.9935
2506.9336
2289.01
2088.2535
1903.6587
1734.2029
1578.8615
1436.6211
1306.4885
1187.5043
1078.7562
979.38216
888.57126
805.5642
729.64305
660.14478
596.46433
538.03317
484.3249
434.85434
389.17526
346.88525
307.58875
270.9288
236.59766
204.28761
173.71269
144.60582
116.71491
89.799661
63.62845
37.97456
12.624362
15875.267
15851.919
15799.428
15712.057
15589.976
15433.441
15242.813
15018.591
14761.428
14472.156
14151.827
13801.742
13423.479
13018.907
12590.203
12139.856
11670.65
11185.645
10688.114
10181.479
9669.2681
9155.0422
8642.315
8134.4754
7634.7145
7145.958
6670.8123
6211.5263
5769.9752
5347.6692
4945.7462
4564.9689
4205.7683
3868.2751
3552.3473
3257.611
2983.5014
2729.3003
2494.1688
2277.1799
2077.3484
1893.6559
1725.0689
1570.555
1429.0948
1299.6924
1181.388
1073.2689
974.4738
884.19273
801.66766
726.18639
657.08839
593.76731
535.65854
482.23956
433.02851
387.58249
345.49625
306.38604
269.8993
235.71943
203.54474
173.0928
144.09875
116.31248
89.495807
63.41931
37.857517
12.588553
15892.873
15869.516
15817.002
15729.586
15607.425
15450.757
15259.916
15035.362
14777.709
14487.754
14166.512
13815.252
13435.517
13029.161
12598.35
12145.589
11673.686
11185.741
10685.088
10175.228
9659.7781
9142.3935
8626.6804
8116.1124
7613.95
7123.1705
6646.4117
6185.9361
5743.6157
5320.9375
4919.0046
4538.544
4179.9424
3843.2822
3528.3773
3234.8098
2961.9736
2709.1135
2475.3584
2259.7534
2061.2902
1878.9308
1711.6263
1558.3323
1418.022
1289.6955
1172.3922
1065.1995
967.25692
877.75649
795.942
721.10588
652.59397
589.80122
532.16722
479.17436
430.34533
385.24188
343.45922
304.62151
268.38342
234.42608
202.45154
172.18118
143.35348
115.72167
89.051385
63.118279
37.697053
12.538436
15915.779
15892.415
15839.883
15752.423
15630.178
15473.354
15282.256
15057.297
14799.039
14508.227
14185.828
13833.066
13451.443
13042.787
12609.25
12153.341
11677.903
11186.085
10681.305
10167.172
9647.4269
9125.8537
8606.1859
8092.011
7586.6834
7093.2484
6614.385
6152.3707
5709.0685
5285.9325
4884.0196
4504.006
4146.2175
3810.6742
3497.1303
3205.1099
2933.9526
2682.8549
2450.9042
2237.11
2040.4338
1859.8128
1694.1783
1542.4723
1403.6578
1276.7305
1160.7283
1054.7387
957.90261
869.41483
788.52278
714.52437
646.77118
584.6626
527.64374
475.20298
426.86939
382.20898
340.82086
302.3384
266.4202
232.75038
201.0352
171.00033
142.38856
114.95817
88.48191
62.731721
37.449645
12.44496
15943.495
15920.131
15867.591
15780.103
15657.785
15500.809
15309.439
15084.034
14825.093
14533.298
14209.551
13855.024
13471.166
13059.762
12622.942
12163.208
11683.437
11186.853
10676.975
10157.55
9632.4762
9105.7062
8581.1365
8062.5024
7553.2773
7056.591
6575.171
6111.3086
5666.8492
5243.203
4841.3682
4461.9534
4105.2064
3771.0682
3459.219
3169.1116
2900.0199
2651.0824
2421.3362
2209.7485
2015.2451
1836.7334
1673.1234
1523.3403
1386.3362
1261.1011
1146.6712
1042.1347
946.63437
859.36812
779.58837
706.60029
639.76095
578.47616
522.19791
470.42153
422.68405
378.55742
337.64629
299.59168
264.05772
230.73356
199.3305
169.57927
141.22819
114.04402
87.80349
62.230628
37.117246
12.328491
15975.419
15952.064
15899.535
15812.045
15689.685
15532.589
15340.965
15115.112
14855.462
14562.619
14237.409
13880.932
13494.573
13080.051
12639.46
12175.293
11690.462
11188.273
10672.372
10146.671
9615.2631
9082.3114
8551.9199
8028.0064
7514.1907
7013.7031
6529.3242
6063.3547
5617.6113
5193.4462
4791.7821
4413.142
4057.6784
3725.2368
3415.4076
3127.5609
2860.896
2614.4846
2387.3065
2178.2809
1986.2939
1810.2211
1648.948
1501.3818
1366.4631
1243.1758
1130.5545
1027.6878
933.72103
847.85738
769.35466
697.52511
631.73304
571.3921
515.96239
464.94725
417.89216
374.37615
334.01215
296.44763
261.3534
228.42483
197.37913
167.95297
139.9013
112.99953
87.013164
61.642797
36.753228
12.213806
16010.845
15987.51
15935.016
15847.563
15725.213
15568.053
15376.229
15149.976
14889.648
14595.765
14269.061
13910.54
13521.502
13103.591
12658.843
12189.733
11699.201
11190.643
10667.849
10134.926
9596.2077
9056.1168
8519.012
7989.0371
7469.986
6965.2037
6477.5252
6009.2514
5562.1559
5137.5151
4736.1554
4358.4912
4004.563
3674.1062
3366.6072
3081.3436
2817.4323
2573.872
2349.5801
2143.4235
1954.2462
1780.8912
1622.2175
1477.1137
1344.5089
1223.3813
1112.7632
1011.7441
919.47412
835.16101
758.06912
687.51857
622.88212
563.58237
509.08863
458.91394
412.61094
369.76675
330.00653
292.98251
258.37301
225.88045
195.22876
166.16156
138.44296
111.84798
86.101406
60.989253
36.382633
12.093355
16048.972
16025.668
15973.239
15885.877
15763.605
15606.463
15414.534
15187.977
14927.066
14632.227
14304.084
13943.529
13551.753
13130.303
12681.141
12206.701
11709.94
11194.339
10663.845
10122.799
9575.8238
9027.6619
8482.9865
7946.212
7421.3384
6911.8373
6420.5938
5949.8939
5501.4463
5076.4294
4675.5473
4299.082
3946.9455
3618.7499
3313.8672
3031.4745
2770.5999
2530.1651
2309.0222
2105.9838
1919.8517
1749.4347
1593.5653
1451.1139
1320.9989
1202.1924
1093.7249
994.68926
904.23885
821.58688
746.00557
676.8237
613.42341
555.23699
501.74348
452.46669
406.96799
364.84319
325.72757
289.28086
255.18918
223.16247
192.93203
164.24955
136.88933
110.61554
85.126783
60.291858
35.986252
11.963546
16088.916
16065.655
16013.33
15926.118
15804.009
15646.993
15455.087
15228.374
14967.041
14671.407
14341.979
13979.515
13585.076
13160.087
12706.404
12226.397
11723.014
11199.804
10660.885
10110.868
9554.7253
8997.5921
8444.5234
7900.2634
7369.0491
6854.4878
6359.5028
5886.3408
5436.6162
5011.3776
4611.1801
4236.1518
3886.0598
3560.3818
3258.3675
2979.0874
2721.4775
2484.3814
2266.5852
2066.8482
1883.9297
1716.6044
1563.6799
1424.0096
1296.5013
1180.1221
1073.903
976.93845
888.38602
807.46558
733.45795
665.70128
603.58776
546.56002
494.10728
445.76411
401.10113
359.72505
321.27954
285.43291
251.87953
220.33718
190.54517
162.26584
135.27558
109.29458
84.108699
59.597992
35.579712
11.829359
16129.725
16106.527
16054.343
15967.346
15845.5
15688.738
15497.016
15270.339
15008.801
14712.611
14382.152
14018.032
13621.157
13192.796
12734.668
12249.035
11738.797
11207.55
10659.584
10099.817
9533.6406
8966.6682
8404.4272
7852.055
7314.0625
6794.1948
6295.3917
5819.8242
5368.9726
4943.7194
4544.4419
4171.0941
3823.284
3500.3463
3201.4044
2925.4196
2671.2359
2437.6195
2223.2923
2026.9641
1847.352
1683.199
1533.2898
1396.4628
1271.6148
1157.7116
1053.7833
958.92638
872.30376
793.14285
720.73343
654.4235
593.61573
537.76356
486.36746
438.97066
395.15338
354.5369
316.77086
281.53253
248.5248
217.47356
188.12651
160.25748
133.64139
107.95832
83.075971
58.893613
35.165139
11.692293
16170.394
16147.279
16095.271
16008.568
15887.089
15730.724
15539.367
15312.95
15051.473
14755.039
14423.898
14058.502
13659.577
13228.204
12765.913
12274.806
11757.684
11218.147
10660.647
10090.443
9513.4242
8935.7899
8363.6466
7802.6083
7257.4948
6732.1821
6229.5911
5751.7681
5300.01
4874.9925
4476.8855
4105.4512
3760.1279
3440.1024
3144.3719
2871.7909
2621.114
2391.0345
2180.2156
1987.3196
1811.0253
1650.0461
1503.1477
1369.1547
1246.9563
1135.5158
1033.8628
941.09737
856.38845
778.97134
708.14502
643.26753
583.75205
529.0628
478.71165
432.25142
389.27204
349.40616
312.31182
277.67495
245.2068
214.64136
185.73441
158.26512
132.0051
106.6486
82.081468
58.19931
34.754374
11.556321
16209.889
16186.876
16135.093
16048.753
15927.744
15771.918
15581.117
15355.202
15094.088
14797.777
14466.389
14100.212
13699.78
13265.947
12800.006
12303.83
11780.045
11232.193
10664.856
10083.659
9495.0714
8906.0132
8323.3078
7753.139
7200.6719
6669.8943
6163.6546
5683.8127
5231.4247
4806.916
4410.2222
4040.8999
3698.2121
3381.1989
3088.7361
2819.5777
2572.3956
2345.8158
2138.4512
1948.9206
1775.8683
1617.9832
1474.0137
1342.7711
1223.1431
1114.0884
1014.6375
923.8945
841.03487
765.30194
696.00391
632.50877
574.24006
520.67257
471.32896
425.77181
383.60075
344.45835
308.01145
273.95439
242.00651
211.91008
183.43201
156.35442
130.40098
105.36189
81.129908
57.53458
34.360479
11.425867
16247.172
16224.278
16172.758
16086.844
15966.399
15811.248
15621.187
15396.019
15135.585
14839.796
14508.651
14142.282
13741.019
13305.467
12836.626
12336.067
11806.142
11250.243
10673.019
10080.46
9479.7124
8878.5736
8284.7472
7705.1026
7145.1796
6609.0413
6099.3939
5617.8356
5165.1214
4741.3848
4346.3057
3979.2275
3639.2395
3325.2424
3036.0001
2770.1771
2526.373
2303.1549
2099.0914
1912.7643
1742.7883
1587.8319
1446.6294
1317.9836
1200.7782
1093.9697
996.59021
907.74839
826.62621
752.47491
684.61159
622.41379
565.31494
512.7999
464.40127
419.69113
378.27837
339.81454
303.9749
270.46173
239.002
209.34595
181.27248
154.56433
128.89892
104.14953
80.231731
56.907502
33.989038
11.302841
16281.23
16258.467
16207.239
16121.8
16001.994
15847.631
15658.472
15434.273
15174.819
14879.947
14549.553
14183.628
13782.305
13345.923
12875.156
12371.187
11835.99
11272.676
10685.856
10081.857
9468.5832
8854.8846
8249.5447
7660.2406
7092.9108
6551.639
6038.9026
5555.9583
5103.202
4680.4432
4287.0949
3922.2889
3584.9502
3273.8534
2987.6645
2724.9717
2484.3143
2264.2109
2063.1924
1879.8106
1712.6568
1560.3814
1421.705
1295.4298
1180.4335
1075.6713
980.17773
893.06594
813.52416
740.81107
674.25206
613.23349
557.1979
505.63931
458.0994
414.15902
373.43549
335.58847
300.30087
267.2822
236.26624
207.00968
179.29685
152.91841
127.54785
103.07026
79.414183
56.33446
33.64941
11.190326
16311.108
16288.482
16237.56
16152.622
16033.506
15880.008
15691.867
15468.809
15210.583
14916.975
14587.804
14222.945
13822.355
13386.119
12914.555
12408.405
11869.153
11299.481
10703.811
10088.725
9462.9285
8836.5053
8219.5251
7620.6055
7046.0923
6500.0202
5984.5478
5500.5164
5047.9199
4626.2289
4234.5928
3871.9447
3537.0614
3228.6095
2945.1736
2685.2796
2447.4195
2230.0733
2031.7416
1850.9521
1686.278
1536.356
1399.8958
1275.6971
1162.6344
1059.6625
965.8184
880.21934
802.05922
730.60334
665.18443
605.19662
550.09048
499.36805
452.57892
409.31167
369.19101
331.88363
297.07914
264.49334
233.86593
204.95912
177.56221
151.47136
126.36266
102.12608
78.696437
55.830708
33.350683
11.091339
16335.937
16313.447
16262.831
16178.4
16059.986
15907.379
15720.308
15498.488
15241.653
14949.56
14621.985
14258.722
13859.588
13424.44
12953.256
12446.31
11904.514
11329.979
10726.76
10101.542
9463.8138
8825.0144
8196.6942
7588.5201
7007.243
6456.7791
5938.8947
5453.9707
5001.5848
4580.8777
4190.7554
3829.9762
3497.1908
3190.9776
2909.8561
2652.3034
2416.7751
2201.7237
2005.6251
1826.9882
1664.372
1516.4022
1381.7807
1259.3039
1147.8442
1046.3567
953.88033
869.53581
792.52171
722.10885
657.63603
598.50382
544.16939
494.14145
447.97612
405.26838
365.64905
328.79065
294.3883
262.16303
231.85939
203.24418
176.11094
150.25994
125.37047
101.33608
78.095568
55.408745
33.100355
11.008378
16354.966
16332.606
16282.279
16198.331
16080.587
15928.836
15742.814
15522.237
15266.841
14976.381
14650.619
14289.306
13892.163
13458.876
12989.128
12482.751
11940.068
11362.526
10753.645
10120.023
9471.7931
8821.7564
8183.0329
7566.4014
6979.002
6424.5927
5904.5269
5418.7332
4966.4016
4546.3806
4157.3689
3797.9811
3466.7672
3162.2367
2882.8592
2627.0743
2393.3082
2179.9953
1985.5923
1808.5924
1647.5434
1501.0623
1367.8446
1246.6837
1136.4503
1036.0992
944.67078
861.28832
785.15375
715.54196
651.7963
593.3222
539.58181
490.08887
444.40447
402.12846
362.89632
326.38499
292.29381
260.34778
230.29516
201.90624
174.97786
149.31336
124.59499
100.71877
77.625883
55.078715
32.904476
10.943445
16367.597
16345.35
16295.279
16211.751
16094.598
15943.611
15758.537
15539.11
15285.076
14996.208
14672.276
14313.023
13918.128
13487.162
13019.598
12514.911
11972.898
11394.357
10782.193
10142.726
9486.4797
8827.4113
8180.0984
7556.3768
6963.7608
6405.8785
5883.7379
5396.8992
4944.2453
4524.3982
4135.8984
3777.252
3446.9336
3143.4004
2865.0847
2610.3977
2377.7424
2165.538
1972.2259
1796.2874
1636.2608
1490.7559
1358.463
1238.1721
1128.7519
1029.1567
938.42721
855.68781
780.14239
711.06829
647.81165
589.78093
536.44151
487.31034
441.95172
399.96872
360.99988
324.72503
290.84631
259.09133
229.21082
200.97735
174.19008
148.65398
124.05469
100.28925
77.298559
54.848352
32.767594
10.898044
16373.4
16351.248
16301.383
16218.185
16101.498
15951.125
15766.83
15548.364
15295.493
15008.014
14685.72
14328.373
13935.645
13507.064
13041.987
12539.662
11999.517
11421.842
10808.991
10166.91
9506.197
8841.5127
8188.4598
7559.7043
6963.1131
6402.3072
5878.1231
5389.919
4936.403
4516.061
4127.3345
3768.6589
3438.4573
3135.1492
2857.1387
2602.8148
2370.5628
2158.787
1965.917
1790.4242
1630.8391
1485.7655
1353.8887
1233.9952
1124.9513
1025.7097
935.31017
852.87702
777.61435
708.80011
645.78137
587.96772
534.82578
485.87384
440.67755
398.84143
360.00538
323.85055
290.08033
258.42355
228.63202
200.47926
173.7658
148.29481
123.76336
100.06168
77.121375
54.722549
32.692531
10.873097
16372.136
16350.053
16300.332
16217.354
16100.981
15951.032
15767.288
15549.519
15297.513
15011.088
14690.065
14334.236
13943.296
13516.785
13054.041
12554.238
12016.648
11441.31
10830.242
10189.053
9528.1446
8862.2429
8207.2481
7576.2096
6977.2978
6414.316
5888.1878
5398.2985
4943.3497
4521.8031
4132.0705
3772.5577
3441.6605
3137.7753
2859.2866
2604.5672
2371.9893
2159.9427
1966.8476
1791.1679
1631.428
1486.2262
1354.2435
1234.2626
1125.1468
1025.8462
935.39853
852.92637
777.63234
708.79318
645.75494
587.92637
534.77337
485.81357
440.61201
398.77294
359.93596
323.78174
290.01343
258.3596
228.57171
200.4223
173.7075
148.22263
123.74518
100.0694
77.098686
54.702318
32.67985
10.8688
16363.766
16341.719
16292.065
16209.193
16092.974
15943.241
15759.793
15542.415
15290.915
15005.129
14684.905
14330.066
13940.35
13515.353
13054.478
12556.976
12022.197
11450.23
10843.055
10206.087
9549.3417
8886.9432
8234.252
7604.1388
7004.9601
6440.8729
5913.1505
5421.4458
4964.6363
4541.2826
4149.845
3788.7475
3456.3881
3151.1581
2871.4345
2615.5822
2381.9654
2168.9606
1974.9826
1798.491
1638.0055
1492.1208
1359.514
1238.9637
1129.33
1029.5596
938.68712
855.83186
780.19331
711.0452
647.73066
589.65565
536.2834
487.12898
441.75472
399.763
360.79159
324.51867
290.6457
258.89961
229.0301
200.80721
174.02027
148.47852
123.98836
100.26783
77.225336
54.787609
32.729833
10.885257
16348.458
16326.413
16276.753
16193.872
16077.649
15927.927
15744.517
15527.22
15275.86
14990.291
14670.382
14315.989
13926.912
13502.837
13043.311
12547.793
12015.916
11448.085
10846.522
10216.594
9567.7561
8913.0366
8266.6012
7640.6283
7043.4662
6479.6839
5951.079
5457.7639
4998.9522
4573.424
4179.7715
3816.4926
3482.0242
3174.7783
2893.1416
2635.4823
2400.1625
2185.5546
1990.0726
1812.1751
1650.3803
1503.2809
1369.5522
1247.9684
1137.3862
1036.749
945.08709
861.51537
785.22868
715.49599
651.65576
593.10932
539.31542
489.78473
444.07479
401.78476
362.54932
326.04132
291.9598
260.02868
229.99465
201.62464
174.70471
149.04448
124.4538
100.64394
77.51059
54.983111
32.844486
10.92306
16326.589
16304.514
16254.781
16171.787
16055.416
15905.517
15721.913
15504.421
15252.881
14967.164
14647.162
14292.776
13903.883
13480.3
13021.784
12528.107
11999.328
11436.342
10841.762
10220.964
9582.7334
8938.746
8301.6378
7682.5643
7089.6406
6527.7728
5999.3238
5504.9624
5044.3472
4616.5758
4220.4505
3854.6018
3517.5492
3207.7574
2923.6457
2663.6015
2425.9977
2209.2123
2011.6654
1831.8206
1668.1984
1519.3933
1384.0815
1261.0315
1149.0984
1047.2222
954.42871
869.82713
792.60638
722.02928
657.42797
598.19751
543.79042
493.7112
447.51101
404.78516
365.16389
328.31011
293.92143
261.71728
231.44002
202.85251
175.73638
149.8946
125.12816
101.22041
77.970803
55.281136
33.017442
10.979998
16298.729
16276.595
16226.735
16143.541
16026.9
15876.671
15692.689
15474.788
15222.829
14936.703
14616.341
14261.702
13872.765
13449.515
12991.971
12500.285
11975.012
11417.589
10831.038
10220.713
9594.6843
8963.2443
8337.4489
7727.3007
7140.4955
6582.1223
6055.0346
5560.4547
5098.5278
4668.7289
4270.1301
3901.5476
3561.629
3248.9262
2961.9175
2699.0311
2458.6673
2239.2212
2039.1281
1856.8637
1690.9577
1540.0118
1402.7062
1277.8012
1164.154
1060.7024
966.46679
880.55032
802.1349
730.4762
664.89857
604.78946
549.59371
498.80836
451.97751
408.68896
368.56674
331.26633
296.48009
263.92194
233.32898
204.45892
177.08786
151.00936
126.03568
101.97279
78.55197
55.671282
33.243422
11.054278
16265.607
16243.397
16193.373
16109.913
15992.914
15842.245
15657.76
15439.314
15186.796
14900.133
14579.307
14224.358
13835.391
13412.592
12956.272
12466.988
11945.786
11394.606
10816.805
10217.65
9604.505
8986.3916
8372.9126
7772.9383
7193.6321
6640.1022
6115.557
5621.6969
5159.1334
4727.7346
4326.8759
3955.5991
3612.7189
3296.9069
3006.7275
2740.6719
2497.1878
2274.7024
2071.6755
1886.6037
1718.0341
1564.5799
1424.9254
1297.8307
1182.1558
1076.8365
980.88826
893.40761
813.56896
740.62005
673.8765
612.71703
556.57762
504.94671
457.35996
413.39603
372.67159
334.83514
299.57077
266.58654
235.61335
206.40296
178.72555
152.36828
127.13707
102.83402
79.247469
56.178583
33.523611
11.145321
16228.1
16205.804
16155.593
16071.827
15954.416
15803.246
15618.194
15399.149
15146.035
14858.832
14537.591
14182.452
13793.672
13371.654
12917.008
12430.677
11914.149
11369.775
10801.136
10213.351
9613.1264
9008.3851
8407.4814
7818.2592
7247.3097
6699.6289
6178.6354
5686.3976
5223.9312
4791.4759
4388.7172
4014.9434
3669.1637
3350.1952
3056.712
2787.2893
2540.4414
2314.648
2108.4008
1920.2261
1748.6956
1592.4401
1450.151
1320.5944
1202.6346
1095.2068
997.32172
908.06939
826.61658
752.2025
684.13369
621.77933
564.5654
511.97077
463.52174
418.78653
377.37443
338.92673
303.11534
269.64362
238.23528
208.63527
180.60734
153.93183
128.40476
103.83915
80.04181
56.745707
33.845666
11.249606
16187.193
16164.806
16114.397
16030.31
15912.47
15760.784
15575.163
15355.536
15101.879
14814.235
14492.743
14137.663
13749.415
13328.622
12876.18
12393.372
11882.051
11344.871
10785.534
10208.964
9621.2822
9029.4949
8440.9224
7862.522
7300.3265
6759.1346
6242.4513
5752.6003
5290.9207
4857.9783
4453.7521
4077.7808
3729.2805
3407.2307
3110.4339
2837.5664
2587.2255
2357.961
2148.3087
1956.8308
1782.129
1622.8592
1477.7241
1345.5032
1225.0643
1115.3434
1015.3483
924.16314
840.94722
764.93082
695.41123
631.74824
573.35681
519.70459
470.30929
424.72804
382.55928
343.43677
307.02402
273.01604
241.12866
211.09955
182.68562
155.66052
129.81317
104.94968
80.871815
57.36391
34.23369
11.371117
16143.944
16121.466
16070.861
15986.461
15868.204
15716.028
15529.884
15309.752
15055.668
14767.754
14446.248
14091.541
13704.22
13285.118
12835.387
12356.596
11850.875
11321.081
10770.955
10205.204
9629.4399
9049.9183
8473.1197
7905.2562
7351.8471
6817.4505
6305.5673
5818.6778
5358.3637
4925.4611
4520.2109
4142.3902
3791.4217
3466.4566
3166.4366
2890.1519
2636.294
2403.4932
2190.3465
1995.4568
1817.4619
1655.0466
1506.9363
1371.9222
1248.8757
1136.7373
1034.5135
941.28359
856.20095
778.48643
707.42646
642.37296
582.73005
527.95387
477.55198
431.07085
388.0965
348.25338
311.19952
276.61949
244.22098
213.73395
184.90806
157.51004
131.32154
106.13771
81.765993
58.00375
34.648098
11.520498
16099.45
16076.887
16026.097
15941.405
15822.769
15670.161
15483.576
15263.053
15008.7
14720.723
14399.466
14045.456
13659.442
13242.449
12795.846
12321.427
11821.524
11299.117
10757.924
10202.434
9637.8189
9069.7262
8503.9585
7946.112
7401.2511
6873.6808
6366.8379
5883.2833
5424.7698
4992.3478
4586.4826
4207.1663
3854.0196
3526.3654
3223.2892
2943.7016
2686.3954
2450.0873
2233.4442
2035.1196
1853.7969
1688.19
1537.0502
1399.1851
1273.471
1158.8536
1054.34
959.00352
871.9956
792.52901
719.87968
653.38916
592.45107
536.51246
485.06792
437.65407
393.84642
353.25848
315.53894
280.36446
247.4351
216.47257
187.21893
159.43384
132.89201
107.38099
82.699076
58.653657
35.042631
11.658053
16054.817
16032.177
15981.222
15896.271
15777.31
15624.345
15437.424
15216.646
14962.193
14674.362
14353.607
14000.586
13616.198
13201.636
12758.446
12288.594
11794.549
11279.351
10746.663
10200.759
9646.4423
9088.8617
8533.275
7984.7736
7448.0286
6927.0988
6425.3228
5945.2873
5488.8588
5057.2523
4651.1185
4270.6378
3915.6124
3585.5298
3279.6175
2996.9077
2736.299
2496.596
2276.539
2074.8448
1890.2396
1721.472
1567.3213
1426.615
1298.2385
1181.1421
1074.3338
976.88392
887.94083
806.71034
732.46181
664.52404
602.28077
545.1684
492.67072
444.31446
399.6655
358.32642
319.93442
284.15812
250.6911
219.24716
189.56051
161.38367
134.48463
108.64424
83.653722
59.311717
35.41883
11.779806
16011.131
15988.424
15937.327
15852.16
15732.935
15579.699
15392.55
15171.651
14917.26
14629.763
14309.725
13957.922
13575.388
13163.459
12723.819
12258.563
11770.246
11261.928
10737.193
10200.119
9655.1935
9107.1636
8560.846
8020.9192
7491.7198
6977.0788
6480.221
6003.7234
5549.5228
5118.9573
4712.8276
4331.4746
3974.8608
3642.625
3334.1298
3048.5286
2784.8249
2541.9111
2318.6032
2113.6795
1925.9128
1754.0891
1597.0171
1453.5452
1322.5742
1203.0582
1094.0031
994.48537
903.64599
820.68547
744.86498
675.50393
611.97622
553.70791
500.17279
450.8878
405.4094
363.33016
324.27614
287.90647
253.90829
221.98872
191.87445
163.31087
136.05938
109.89464
84.601789
59.973445
35.806453
11.906493
15969.426
15946.665
15895.453
15810.114
15690.69
15537.266
15349.992
15129.092
14874.898
14587.886
14268.72
13918.284
13537.729
13128.505
12692.408
12231.621
11748.752
11246.851
10729.415
10200.347
9663.8681
9124.3984
8586.3992
8054.211
7531.8879
7023.0575
6530.8299
6057.7509
5605.7966
5176.395
4770.4676
4388.4894
4030.5583
3696.4456
3385.6411
3097.4162
2830.8752
2584.9933
2358.6594
2150.7123
1959.9724
1785.2627
1625.424
1479.3295
1345.8904
1224.0691
1112.8756
1011.3833
918.7304
834.11331
756.78614
686.06026
621.2997
561.92108
507.38945
457.21225
410.93652
368.14562
328.45594
291.51639
257.00682
224.62915
194.10324
165.16748
137.57709
111.10102
85.518736
60.617074
36.190257
12.035142
15930.673
15907.869
15856.568
15771.1
15651.535
15497.998
15310.684
15089.879
14835.984
14549.558
14231.351
13882.346
13503.786
13097.216
12664.516
12207.934
11730.101
11234.043
10723.169
10201.226
9672.2167
9140.2938
8609.6335
8084.3003
7568.1114
7064.5191
6576.5254
6106.6351
5656.8424
5228.6398
4823.0435
4440.6377
4081.6309
3745.911
3433.0852
3142.5324
2873.4493
2624.8877
2395.8036
2185.0941
1991.6266
1814.2637
1651.8752
1503.3548
1367.634
1243.676
1130.4966
1027.1696
932.82962
846.66863
767.93605
695.93679
630.02393
569.60626
514.14302
463.13207
416.11108
372.65484
332.371
294.89751
259.90884
227.10303
196.1917
166.90756
139.00051
112.23473
86.384416
61.228675
36.562355
12.162003
15895.753
15872.917
15821.551
15735.992
15616.335
15462.741
15275.452
15054.808
14801.274
14515.478
14198.25
13850.65
13474.002
13069.923
12640.356
12187.591
11714.271
11223.387
10718.266
10202.521
9679.9753
9154.5663
8630.2412
8110.8417
7599.9909
7100.9933
6616.755
6149.7366
5701.9376
5274.8957
4869.6979
4487.0124
4127.1373
3790.0691
3475.5202
3182.9556
2911.6548
2660.7381
2429.2211
2216.0546
2020.1569
1840.4259
1675.7568
1525.0684
1387.2969
1261.4159
1146.4474
1041.4667
945.60467
858.04815
778.04553
704.89683
637.93708
576.57279
520.266
468.50102
420.806
376.74855
335.92817
297.96396
262.53813
229.34972
198.08886
168.48836
140.29569
113.27324
87.183449
61.764856
36.85593
12.257749
15865.444
15842.586
15791.172
15705.552
15585.841
15432.232
15245.007
15024.557
14771.402
14486.229
14169.93
13823.633
13448.724
13046.874
12620.071
12170.636
11701.212
11214.754
10714.516
10204.002
9686.8874
9166.9399
8647.9258
8133.5101
7627.1603
7132.0606
6651.0359
6186.5042
5740.4631
5314.4802
4909.6938
4526.8353
4166.2765
3828.1092
3512.1349
3217.8865
2944.7127
2691.794
2458.194
2242.9175
2044.9293
1863.1593
1696.5311
1543.9691
1404.4224
1276.8747
1160.3545
1053.9392
956.75469
867.97841
786.87302
712.7204
644.80421
582.59845
525.56773
473.1538
424.87688
380.30327
339.03406
300.6232
264.81301
231.31914
199.74995
169.87123
141.43359
114.18025
87.851118
62.211444
37.104394
12.33349
15840.402
15817.529
15766.084
15680.425
15560.685
15407.083
15219.942
14999.69
14746.891
14462.281
14146.803
13801.635
13428.212
13028.246
12603.757
12157.083
11690.863
11208.02
10711.747
10205.46
9692.7198
9177.1636
8662.4184
8152.0138
7649.2973
7157.3588
6678.9569
6216.4734
5771.8996
5346.8207
4942.4116
4559.4555
4198.3863
3859.3614
3542.2514
3246.6514
2971.9621
2717.4132
2482.1141
2265.1084
2065.4039
1881.9675
1713.7288
1559.6253
1418.6165
1289.6947
1171.8967
1064.3073
966.01189
876.1575
794.10397
719.13924
650.49012
587.61266
529.97647
477.01853
428.2548
383.24704
341.58922
302.83046
266.71498
232.95901
201.11688
171.00761
142.36068
114.89322
88.379694
62.590394
37.346111
12.41471
15821.157
15798.274
15746.81
15661.127
15541.376
15387.792
15200.731
14980.653
14728.153
14444.004
14129.187
13784.917
13412.663
13014.17
12591.477
12146.931
11683.164
11203.075
10709.811
10206.718
9697.2751
9185.0242
8673.4914
8166.1086
7666.1362
7176.5926
6700.1862
6239.2718
5795.8328
5371.463
4967.3634
4584.3598
4222.9365
3883.2868
3565.3275
3268.7086
2992.8682
2737.0733
2500.478
2282.1619
2081.1528
1896.4391
1726.967
1571.6841
1429.5557
1299.5808
1180.8118
1072.2847
973.07728
882.4299
799.67204
724.06803
654.89253
591.53011
533.41965
480.03227
430.88451
385.53026
343.55424
304.55693
268.20721
234.20165
202.15748
171.87284
143.06591
115.43641
88.799411
62.90567
37.5378
12.478847
15808.108
15785.219
15733.743
15648.048
15528.293
15374.729
15187.73
14967.78
14715.493
14431.67
14117.316
13773.668
13402.22
13004.736
12583.269
12140.169
11678.062
11199.83
10708.587
10207.635
9700.3987
9190.3563
8680.9699
8175.6082
7677.4745
7189.5388
6714.4759
6254.6229
5811.9559
5388.0735
4984.1941
4601.1725
4239.5272
3899.4738
3580.9529
3283.6502
3007.0312
2750.3973
2512.9253
2293.7204
2091.8353
1906.2595
1735.9555
1579.8773
1436.9959
1306.3071
1186.8457
1077.6432
977.83278
886.71048
803.51121
727.47048
657.90504
594.19235
535.76011
482.08143
432.67284
387.08551
344.89978
305.72705
269.21587
235.04122
202.8845
172.4736
143.54498
115.83141
89.099517
63.11923
37.666011
12.521687
15801.521
15778.627
15727.146
15641.446
15521.691
15368.138
15181.172
14961.289
14709.114
14425.459
14111.341
13768.012
13396.974
13000.003
12579.158
12136.789
11675.518
11198.22
10707.993
10208.115
9701.9838
9193.0473
8684.7356
8180.3867
7683.1753
7196.0472
6721.6604
6262.3429
5820.0667
5396.4327
4992.6684
4609.643
4247.8918
3907.6433
3588.8475
3291.2081
3014.2005
2757.1253
2519.1926
2299.5449
2097.2226
1911.2179
1740.4992
1584.0254
1440.7919
1309.7076
1189.8318
1080.2784
980.18564
888.84456
805.41919
729.16627
659.40843
595.5209
536.92868
483.10316
433.56397
387.86217
345.57404
306.3109
269.71659
235.46332
203.24457
172.77633
143.78986
116.02342
89.241175
63.219474
37.725432
12.54007
15886.304
15862.925
15810.362
15722.873
15600.637
15443.913
15253.034
15028.595
14771.274
14481.879
14161.484
13811.422
13433.292
13028.982
12600.679
12150.867
11682.318
11198.075
10701.383
10195.624
9684.28
9170.8608
8658.8323
8151.5417
7652.1484
7163.5584
6688.3702
6228.8332
5786.8299
5363.9027
4961.2238
4579.5616
4219.3905
3880.8919
3563.9301
3268.1492
2993.0053
2737.7979
2501.701
2283.796
2083.1053
1898.6179
1729.306
1574.1406
1432.1022
1302.1889
1183.4297
1074.9083
975.76219
885.18115
802.41082
726.69456
657.3892
593.92073
535.69457
482.18201
432.89953
387.40339
345.31173
306.09045
269.50933
235.36486
203.2178
172.79386
143.83105
116.07951
89.300607
63.265036
37.741163
12.538509
15892.438
15869.063
15816.496
15728.994
15606.73
15449.957
15259.016
15034.464
14776.959
14487.318
14166.601
13816.123
13437.474
13032.535
12603.488
12152.824
11683.322
11198.05
10700.278
10193.405
9680.9407
9166.4277
8653.3637
8145.1254
7644.8964
7155.6017
6679.8519
6219.8996
5777.6151
5354.5414
4951.8564
4570.3087
4210.3499
3872.1396
3555.5333
3260.1606
2985.4626
2730.726
2495.1127
2277.694
2077.4838
1893.4645
1724.6026
1569.865
1428.2321
1298.6984
1180.291
1072.0935
973.24304
882.92747
800.39979
724.92844
655.8399
592.54942
534.48409
481.11685
431.96212
386.56508
344.53023
305.45432
269.02883
234.93283
202.84483
172.47986
143.57286
115.87354
89.143462
63.153634
37.681532
12.523561
15904.632
15881.241
15828.654
15741.119
15618.801
15461.939
15270.874
15046.097
14788.245
14498.127
14176.777
13825.483
13445.809
13039.626
12609.105
12156.756
11685.364
11198.046
10698.123
10189.026
9674.3249
9157.6284
8642.4986
8132.371
7630.4778