/*--------------------------------*- C++ -*----------------------------------*\
  =========                 |
  \\      /  F ield         | OpenFOAM: The Open Source CFD Toolbox
   \\    /   O peration     | Website:  https://openfoam.org
    \\  /    A nd           | Version:  12
     \\/     M anipulation  |
\*---------------------------------------------------------------------------*/
FoamFile
{
    format      ascii;
    class       volScalarField;
    location    "0";
    object      thickness;
}
// * * * * * * * * * * * * * * * * * * * * * * * * * * * * * * * * * * * * * //

dimensions      [0 0 0 0 0 0 0];

internalField   uniform 0;

boundaryField
{
    inlet
    {
        type            fixedValue;
        value           uniform 0;
    }
    outlet
    {
        type            fixedValue;
        value           uniform 0;
    }
    walls
    {
        type            fixedValue;
        value           uniform 0;
    }
    rocket
    {
        type            fixedValue;
        value           nonuniform List<scalar> 
822
(
0
0
0
0
0
0
0
0
0
0
0
0
0
0
0
0
0
0
0
0
0
0
0
0
0
0
0
0
0
0
0
0
0
0
0
0
0
0
0
0
0
0
0
0
0
0
0
0
0
0
0
0
0
0
0
0
0
0
0
0
0
0
0
0
0
0
0
0
0
0
0
0
0
0
0
0
0
0
0
0
0
0
0
0
0
0
0
0
0
0
0
0
0
0
0
0
0
0
0
0
0
0
0
0
0
0
0
0
0
0
0
0
0
0
0
0
0
0
0
0
0
0
0
0
0
0
0
0
0
0
0
0
0
0
0
0
0
0
0
0
0
0
0
0
0
0
0
0
0
0
0
0
0
0
0
0
0
0
0
0
0
0
0
0
0
0
0
0
0
0
0
0
0
0
0
0
0
0
0
0
0
0
0
0
0
0
0
0
0
0
0
0
0
0
0
0
0
0
0
0
0
0
0
0
0
0
0
0
0
0
0
0
0
0
0
0
0
0
0
0
0
0
0
0
0
0
0
0
0
0
0
0
0
0
0
0
0
0
0
0
0
0
0
0
0
0
0
0
0
0
0
0
0
0
0
0
0
0
0
0
0
0
0
0
0
0
0
0
0
0
0
0
0
0
0
0
0
0
0
0
0
0
0
0
0
0
0
0
0
0
0
0
0
0
0
0
0
0
0
0
0
0
0
0
0
0
0
0
0
0
0
0
0
0
0
0
0
0
0
0
0
0
0
0
0
0
0
0
0
0
0
0
0
0
0
0
0
0
0
0
0
0
0
0
0
0
0
0
0
0
0
0
0
0
0
0
0
0
0
0
0
0
0
0
0
0
0
0
0
0
0
0
0
0
0
0
0
0
0
0
0
0
0
0
0
0
0
0
0
0
0
0
0
0
0
0
0
0
0
0
0
0
0
0
0
0
0
0
0
0
0
0
0
0
0
0
0
0
0
0
0
0
0
0
0
0
0
0
0
0
0
0
0
0
0
0
0
0
0
0
0
0
0
0
0
0
0
0
0
0
0
0
0
0
0
0
0
0
0
0
0
0
0
0
0
0
0
0
0
0
0
0
0
0
0
0
0
0
0
0
0
0
0
0
0
0
0
0
0
0
0
0
0
0
0
0
0
0
0
0
0
0
0
0
0
0
0
0
0
0
0
0
0
0
0
0
0
0
0
0
0
0
0
0
0
0
0
0
0
0
0
0
0
0
0
0
0
0
0
0
0
0
0
0
0
0
0
0
0
0
0
0
0
0
0
0
0
0
0
0
0
0
0
0
0
0
0
0
0
0
0
0
0
0
0
0
0
0
0
0
0
0
0
0
0
0
0.658385
0.761359
0.761425
0.734603
0.34022
0.47532
0.657426
0.759421
0.760141
0.760216
0.760203
0.754755
0.323232
0.296524
0.0433627
0.157115
0.117367
0.305475
0.135709
0.166757
0.224775
0.034591
0.188571
0.163823
0.0634932
0.145716
0.0907606
0.127105
0.306262
0.204513
0.36278
0.258934
0.20786
0.316834
0.0516354
0.119908
0.316386
0.20033
0.145914
0.0893221
0.0420708
0.117597
0.129803
0.238294
0.271569
0.160988
0.300329
0.494469
0.733704
0.550435
0.571477
0.761436
0.571538
0.571527
0.761324
0.571434
0.115158
0.0843027
0.13314
0.0498115
0.175157
0.359591
0.13459
0.492024
0.732586
0.54759
0.210409
0.209043
0.754708
0.567831
0.564231
0.568384
0.760215
0.568439
0.210641
0.210642
0.760219
0.568439
0.568441
0.568427
0.760106
0.568342
0.208922
0.210349
0.564081
0.759359
0.567727
0.0319279
0.0676975
0.128728
0.149172
0.0386416
0.0907945
0.0415583
0.0781384
0.0289022
0.281015
0.271213
0.149039
0.192704
0.0344446
0.064341
0.0298963
0.105356
0.0406376
0.0533906
0.0357696
0.0379919
0.101042
0.040291
0.733527
0.182614
0.18271
0.476018
0.760633
0.761438
0.755928
0.20268
0.18234
0.145638
0.0894301
0.0419478
0.0918042
0.128537
0.31007
0.206453
0.306139
0.547721
0.550494
0.662565
0.661711
0.493422
0.495681
0.204375
0.183745
0.0503716
0.133888
0.136221
0.136516
0.486205
0.486651
0.36241
0.363656
0.0505717
0.134688
0.136196
0.166964
0.225371
0.23783
0.271319
0.160662
0.300499
0.117309
0.129946
0.30309
0.0440463
0.158696
0.121557
0.0523119
0.121285
0.32331
0.209867
0.383104
0.342509
0.23878
0.356542
0.0530015
0.307954
0.206823
0.16107
0.0343562
0.182197
0.202803
0.210621
0.210641
0.210635
0.210599
0.280972
0.271615
0.149153
0.192673
0.246507
0.184153
0.076084
0.0869726
0.175429
0.361334
0.135247
0.134184
0.0501956
0.183682
0.204529
0.755897
0.570907
0.56725
0.212274
0.210873
0.212496
0.21252
0.76144
0.571541
0.571543
0.212521
0.212521
0.212514
0.212472
0.567068
0.760566
0.570793
0.210736
0.212207
0.272753
0.149177
0.0384773
0.102809
0.272803
0.103038
0.0322401
0.0682297
0.182759
0.0576999
0.0392368
0.114972
0.0842049
0.0298575
0.105615
0.0406855
0.0344476
0.0643051
0.0627044
0.0283482
0.0584032
0.038033
0.0359895
0.100766
0.0401416
)
;
    }
}


// ************************************************************************* //
