/*--------------------------------*- C++ -*----------------------------------*\
  =========                 |
  \\      /  F ield         | OpenFOAM: The Open Source CFD Toolbox
   \\    /   O peration     | Website:  https://openfoam.org
    \\  /    A nd           | Version:  12
     \\/     M anipulation  |
\*---------------------------------------------------------------------------*/
FoamFile
{
    format      ascii;
    class       volScalarField;
    location    "2";
    object      p;
}
// * * * * * * * * * * * * * * * * * * * * * * * * * * * * * * * * * * * * * //

dimensions      [0 2 -2 0 0 0 0];

internalField   nonuniform List<scalar> 
364563
(
-420.65443
-306.76161
-231.84294
-183.19935
-146.60026
-116.94872
-91.84716
-69.986933
-50.558074
-33.012118
-16.957816
-2.1055221
11.765055
24.824989
37.210056
49.030685
60.378483
71.330897
81.954507
92.307503
102.44169
112.40392
122.23736
131.98249
141.67804
151.36186
161.07169
170.84594
180.72453
190.74968
200.9669
211.42612
222.18308
233.30101
244.85285
256.92408
269.61663
283.0542
297.39008
312.81893
329.59389
348.05179
368.65462
392.06339
419.28272
451.99535
493.36859
550.08026
637.78978
800.40834
-420.65926
-306.76489
-231.84535
-183.2013
-146.60191
-116.95017
-91.848464
-69.988128
-50.559175
-33.013139
-16.958744
-2.1063661
11.764305
24.824312
37.209458
49.030147
60.378014
71.330494
81.954157
92.307217
102.44145
112.40371
122.23715
131.98227
141.6778
151.36159
161.07139
170.84562
180.72418
190.74931
200.96651
211.42572
222.18267
233.30059
244.85243
256.92366
269.61622
283.05381
297.38971
312.81858
329.59358
348.05153
368.65443
392.0633
419.28276
451.99558
493.36909
550.08117
637.79134
800.411
-420.66663
-306.77029
-231.84948
-183.20466
-146.60477
-116.95268
-91.850717
-69.990178
-50.561051
-33.014848
-16.960286
-2.1077362
11.763097
24.823257
37.208539
49.02936
60.377355
71.32996
81.953746
92.306917
102.44124
112.40357
122.23704
131.98215
141.67765
151.3614
161.07114
170.84533
180.72386
190.74895
200.96612
211.4253
222.18223
233.30014
244.85196
256.9232
269.61577
283.05337
297.38931
312.81824
329.5933
348.05134
368.65436
392.0634
419.28308
451.99622
493.37017
550.08289
637.794
800.41504
-420.67595
-306.77752
-231.85529
-183.20955
-146.60903
-116.95649
-91.854176
-69.993349
-50.563968
-33.017523
-16.962719
-2.1099277
11.761137
24.821512
37.206996
49.028012
60.376197
71.328991
81.952961
92.306305
102.44078
112.40321
122.23675
131.98188
141.67737
151.36108
161.07078
170.84493
180.72341
190.74846
200.96559
211.42474
222.18164
233.29953
244.85134
256.92258
269.61515
283.05279
297.38876
312.81775
329.5929
348.05105
368.65423
392.06347
419.28345
451.99698
493.37147
550.08495
637.79711
800.4196
-420.68707
-306.78656
-231.86287
-183.21616
-146.61495
-116.96188
-91.859141
-69.997953
-50.568245
-33.021487
-16.966375
-2.1132815
11.758074
24.818724
37.204471
49.025744
60.374184
71.32723
81.951448
92.305025
102.43971
112.40231
122.23596
131.98116
141.67667
151.36038
161.07007
170.84418
180.72263
190.74764
200.96474
211.42385
222.18072
233.29858
244.85038
256.92161
269.61419
283.05185
297.38786
312.81691
329.59214
348.05042
368.65376
392.06324
419.28353
451.99749
493.37257
550.08684
637.8001
800.42403
-420.70002
-306.7975
-231.87236
-183.22467
-146.62273
-116.9691
-91.865883
-70.004277
-50.574181
-33.027051
-16.971575
-2.1181255
11.753574
24.814555
37.200624
49.022214
60.37097
71.324331
81.948858
92.30273
102.43768
112.4005
122.23433
131.97965
141.67525
151.359
161.06871
170.84283
180.72126
190.74626
200.96332
211.4224
222.17924
233.29708
244.84885
256.92007
269.61265
283.05032
297.38636
312.81546
329.59077
348.04916
368.65266
392.06236
419.28297
451.99736
493.37302
550.08809
637.80242
800.42776
-420.7149
-306.81043
-231.8839
-183.23524
-146.63258
-116.97836
-91.87464
-70.012575
-50.582047
-33.034499
-16.978613
-2.124762
11.747329
24.808693
37.195138
49.017102
60.366232
71.319968
81.944863
92.299089
102.43436
112.39747
122.23154
131.97705
141.67279
151.35665
161.06642
170.84058
180.71903
190.74402
200.96107
211.42013
222.17694
233.29475
244.8465
256.91769
269.61026
283.04792
297.38397
312.81309
329.58845
348.04693
368.65057
392.06047
419.28137
451.99616
493.37238
550.08821
637.80357
800.43025
-420.7318
-306.82549
-231.89763
-183.24805
-146.64468
-116.98987
-91.885626
-70.02308
-50.592091
-33.044091
-16.987761
-2.1334726
11.739051
24.800842
37.187712
49.010102
60.359661
71.313826
81.939146
92.293782
102.42944
112.3929
122.22727
131.97303
141.66897
151.35299
161.06288
170.83711
180.71561
190.74063
200.95768
211.41673
222.17352
233.2913
244.84301
256.91417
269.6067
283.04432
297.38035
312.80947
329.58485
348.04337
368.64711
392.05717
419.27831
451.99345
493.37017
550.08671
637.80303
800.43099
-420.75088
-306.84283
-231.91371
-183.26325
-146.65919
-117.0038
-91.899045
-70.036009
-50.604543
-33.056074
-16.999277
-2.1445226
11.728465
24.790721
37.178059
49.000921
60.350957
71.305602
81.931397
92.286496
102.42259
112.38645
122.22118
131.96726
141.66346
151.34768
161.05774
170.83209
180.71068
190.73575
200.95283
211.41188
222.16865
233.28639
244.83805
256.90915
269.60162
283.03918
297.37515
312.80421
329.57956
348.03809
368.64186
392.05203
419.27335
451.9888
493.36595
550.08312
637.80033
800.42948
-420.77226
-306.86259
-231.93231
-183.28102
-146.67631
-117.02036
-91.915095
-70.051572
-50.619628
-33.070682
-17.013404
-2.1581664
11.71531
24.77806
37.1659
48.989273
60.339828
71.294995
81.92131
92.276918
102.4135
112.37781
122.21295
131.95939
141.6559
151.34039
161.05065
170.82517
180.70388
190.72902
200.94615
211.40521
222.16196
233.27966
244.83126
256.90227
269.59465
283.0321
297.36796
312.79693
329.57219
348.03066
368.63442
392.04463
419.26607
451.98174
493.35926
550.07698
637.79499
800.42524
-420.7961
-306.88494
-231.95357
-183.30152
-146.6962
-117.03973
-91.933972
-70.069976
-50.637562
-33.08814
-17.03038
-2.1746498
11.699329
24.762595
37.150963
48.974877
60.325983
71.281707
81.90858
92.264733
102.40184
112.36665
122.20224
131.94909
141.64596
151.33075
161.04126
170.81598
180.69484
190.72008
200.93727
211.39634
222.15307
233.27071
244.82223
256.89313
269.58537
283.02268
297.35839
312.78719
329.56231
348.02066
368.62434
392.03452
419.25602
451.97184
493.34965
550.06784
637.78655
800.41779
-420.82255
-306.91003
-231.97768
-183.32493
-146.71905
-117.06209
-91.955872
-70.091424
-50.658555
-33.10867
-17.050433
-2.1942109
11.680277
24.744069
37.132981
48.957456
60.309137
71.265445
81.892901
92.249629
102.38729
112.35263
122.18871
131.936
141.63326
151.31839
161.0292
170.80414
180.68317
190.70854
200.92579
211.38488
222.14158
233.25916
244.81056
256.88132
269.57339
283.0105
297.346
312.7746
329.54951
348.00768
368.61121
392.0213
419.24277
451.95867
493.33669
550.05526
637.77458
800.40671
-420.85178
-306.93804
-232.00481
-183.35143
-146.74504
-117.08763
-91.980986
-70.116116
-50.682816
-33.132485
-17.073785
-2.2170795
11.657913
24.722234
37.111697
48.936743
60.289012
71.245918
81.873974
92.231295
102.36953
112.33542
122.17201
131.91977
141.61746
151.30296
161.01407
170.78927
180.66849
190.69399
200.91131
211.37042
222.12709
233.24457
244.79583
256.86642
269.55827
282.99515
297.33039
312.75872
329.53337
347.99128
368.5946
392.00453
419.22591
451.94182
493.31996
550.03883
637.75867
800.39158
-420.88394
-306.96912
-232.03512
-183.38118
-146.77435
-117.11653
-92.009502
-70.144242
-50.710541
-33.15979
-17.100647
-2.2434744
11.632013
24.696854
37.086865
48.912482
60.265341
71.222848
81.85151
92.209432
102.34826
112.3147
122.15183
131.90008
141.5982
151.28409
160.99553
170.771
180.65042
190.67606
200.89345
211.35256
222.10917
233.22654
244.77764
256.84801
269.53962
282.97621
297.31114
312.73915
329.51348
347.97109
368.57413
391.98383
419.20506
451.9209
493.2991
550.01817
637.73842
800.372
-420.91918
-307.00343
-232.06877
-183.41436
-146.80713
-117.14897
-92.041593
-70.175984
-50.741916
-33.190775
-17.131217
-2.2735988
11.602363
24.66771
37.058256
48.884433
60.237872
71.195975
81.825237
92.183755
102.32316
112.29017
122.12783
131.87658
141.57515
151.26144
160.97322
170.74895
180.62858
190.65435
200.8718
211.33091
222.08745
233.20468
244.75559
256.82572
269.51703
282.9533
297.28788
312.71552
329.48948
347.94673
368.54944
391.95885
419.17986
451.89556
493.27373
549.99293
637.7135
800.34763
-420.95764
-307.04111
-232.1059
-183.45111
-146.84356
-117.18509
-92.077423
-70.211506
-50.777109
-33.225614
-17.16567
-2.3076362
11.568775
24.634605
37.025663
48.85238
60.206381
71.16506
81.794906
92.154007
102.29399
112.26155
122.09974
131.84897
141.548
151.23467
160.94679
170.72279
180.60262
190.62851
200.84601
211.3051
222.06154
233.17862
244.72931
256.79917
269.49016
282.92606
297.26025
312.68748
329.46102
347.91786
368.52019
391.92926
419.14999
451.86549
493.24357
549.96281
637.6836
800.31817
-420.99945
-307.08229
-232.14666
-183.49156
-146.88375
-117.22505
-92.117132
-70.250952
-50.816268
-33.264456
-17.204162
-2.3457443
11.531085
24.597367
36.988909
48.816138
60.170671
71.129898
81.7603
92.119957
102.26049
112.22858
122.06728
131.81699
141.51645
151.20351
160.91594
170.69221
180.57221
190.59821
200.81575
211.2748
222.03114
233.14804
244.69849
256.76804
269.45868
282.89419
297.22795
312.65474
329.42782
347.88421
368.48611
391.89479
419.11519
451.83043
493.20835
549.92755
637.64847
800.28336
-421.04472
-307.12709
-232.19115
-183.53583
-146.92784
-117.26895
-92.160838
-70.294441
-50.859512
-33.307422
-17.246816
-2.3880508
11.489162
24.55586
36.94785
48.775552
60.130582
71.090319
81.72124
92.081417
102.22246
112.19106
122.03024
131.7804
141.48027
151.16769
160.88042
170.65692
180.53709
190.56319
200.78075
211.23974
221.99594
233.11264
244.66283
256.73207
269.42233
282.85743
297.19073
312.61704
329.38964
347.84554
368.44698
391.85522
419.07523
451.79017
493.16786
549.88695
637.6079
800.24301
-421.09354
-307.1756
-232.23946
-183.584
-146.9759
-117.31688
-92.208629
-70.342061
-50.906929
-33.354602
-17.293723
-2.4346486
11.442908
24.509983
36.902378
48.730511
60.08599
71.046192
81.677585
92.038238
102.17975
112.14882
121.98843
131.73901
141.43925
151.127
160.84001
170.61672
180.49703
190.5232
200.74075
211.19967
221.95573
233.07222
244.62213
256.69103
269.3809
282.81556
297.14839
312.5742
329.34628
347.80168
368.40261
391.81039
419.02998
451.74455
493.12196
549.84087
637.56176
800.19698
-421.14597
-307.22787
-232.29165
-183.63615
-147.02799
-117.36891
-92.260557
-70.393863
-50.958571
-33.406047
-17.344935
-2.4855916
11.392267
24.459674
36.852428
48.680942
60.036819
70.99743
81.629242
91.990316
102.13225
112.10172
121.94173
131.69267
141.39325
151.08129
160.79453
170.57142
180.45185
190.47807
200.69561
211.15444
221.91034
233.0266
244.57623
256.64477
269.33425
282.76845
297.1008
312.52609
329.29765
347.75251
368.35292
391.7602
418.97932
451.69349
493.07056
549.78923
637.50998
800.14521
-421.20205
-307.28392
-232.34774
-183.69227
-147.08412
-117.42503
-92.316631
-70.449855
-51.014444
-33.461764
-17.40046
-2.5408911
11.337224
24.404915
36.797977
48.626817
59.983034
70.943996
81.576164
91.937597
102.07989
112.04971
121.89005
131.64131
141.34217
151.03045
160.7439
170.52093
180.40146
190.4277
200.64521
211.10394
221.85967
232.9757
244.52503
256.59322
269.28229
282.71604
297.0479
312.47267
329.24368
347.69799
368.29786
391.70462
418.92326
451.63698
493.01368
549.73204
637.45257
800.0877
-421.26174
-307.34374
-232.40769
-183.75234
-147.14427
-117.48521
-92.376813
-70.509998
-51.07451
-33.521715
-17.460262
-2.600512
11.277812
24.345735
36.739048
48.568154
59.924649
70.885897
81.518355
91.880081
102.02266
111.99277
121.83338
131.58489
141.28598
150.97446
160.68807
170.46522
180.3458
190.37206
200.58952
211.04814
221.8037
232.9195
244.46853
256.53637
269.22503
282.65832
296.98969
312.41394
329.18441
347.63816
368.23748
391.6437
418.86183
451.57508
492.95136
549.66936
637.38961
800.02455
-421.32498
-307.40724
-232.47144
-183.81627
-147.20834
-117.54936
-92.441012
-70.574199
-51.138674
-33.585808
-17.52425
-2.6643683
11.214112
24.282211
36.675716
48.505026
59.861732
70.823197
81.455876
91.817823
101.96063
111.93094
121.77177
131.52347
141.22472
150.91335
160.62707
170.4043
180.28493
190.31118
200.52857
210.98708
221.74247
232.85804
244.40678
256.47428
269.16254
282.59539
296.92627
312.35
329.11993
347.57313
368.17189
391.57756
418.79517
451.50793
492.88375
549.60134
637.32124
799.9559
-421.39164
-307.47429
-232.53883
-183.88392
-147.27618
-117.61734
-92.509073
-70.642305
-51.206788
-33.653895
-17.592282
-2.7323201
11.14626
24.214476
36.60811
48.437556
59.794405
70.756016
81.388843
91.750939
101.89389
111.86435
121.70531
131.45713
141.1585
150.84723
160.56102
170.3383
180.21894
190.24517
200.4625
210.92089
221.67612
232.79146
244.33993
256.40709
269.09497
282.52739
296.8578
312.28103
329.05042
347.50308
368.10128
391.5064
418.72348
451.43573
492.81107
549.52821
637.24769
799.882
-421.46151
-307.54469
-232.60966
-183.95507
-147.34757
-117.68892
-92.580781
-70.714103
-51.27864
-33.72577
-17.664154
-2.8041688
11.074451
24.14272
36.536415
48.365929
59.722851
70.684536
81.317438
91.679609
101.82263
111.79316
121.63419
131.38608
141.08751
150.77627
160.4901
170.26739
180.14803
190.17422
200.39148
210.84976
221.60482
232.71996
244.26817
256.33502
269.02254
282.45456
296.78452
312.20726
328.97614
347.42826
368.02592
391.4305
418.64704
451.35877
492.73361
549.45027
637.16928
799.80314
-421.53434
-307.61815
-232.68364
-184.02945
-147.42225
-117.76382
-92.65586
-70.789318
-51.353957
-33.801164
-17.739603
-2.8796558
10.99894
24.067194
36.460881
48.290393
59.647315
70.609002
81.241907
91.60408
101.7471
111.71764
121.55867
131.31056
141.01198
150.70075
160.41457
170.19185
180.07245
190.0986
200.31578
210.77396
221.52888
232.64382
244.19179
256.25836
268.94555
282.37718
296.70672
312.129
328.89739
347.349
367.94614
391.35018
418.56619
451.27741
492.65173
549.36786
637.08635
799.7197
-421.6098
-307.69436
-232.76045
-184.10671
-147.49985
-117.8417
-92.733968
-70.867612
-51.432408
-33.879749
-17.818305
-2.9584606
10.920042
23.988212
36.381821
48.211259
59.568109
70.529727
81.162563
91.524668
101.66763
111.6381
121.47906
131.2309
140.93227
150.62099
160.33477
170.112
179.99256
190.01864
200.23575
210.69383
221.44862
232.5634
244.11116
256.17747
268.86435
282.29564
296.62479
312.04664
328.81457
347.2657
367.86233
391.26586
418.48135
451.19205
492.56584
549.28144
636.99936
799.63213
-421.68751
-307.77291
-232.83969
-184.18645
-147.58
-117.92217
-92.814709
-70.948592
-51.513602
-33.961139
-17.899876
-3.0402024
10.838138
23.906152
36.299611
48.128904
59.485612
70.44709
81.079789
91.441758
101.58458
111.55493
121.39577
131.14749
140.84877
150.5374
160.2511
170.02826
179.90876
189.93477
200.15181
210.60979
221.36447
232.47911
244.02668
256.09277
268.77938
282.21036
296.53916
311.96062
328.72813
347.1788
367.77496
391.178
418.39299
451.10317
492.47644
549.19148
636.9088
799.54092
-421.76702
-307.85337
-232.9209
-184.26823
-147.66222
-118.00477
-92.897634
-71.031812
-51.597096
-34.044891
-17.983877
-3.124443
10.753665
23.821452
36.21469
48.043767
59.400264
70.361535
80.99403
91.3558
101.49843
111.46859
121.30926
131.06082
140.76195
150.45046
160.16405
169.94112
179.82153
189.84748
200.06444
210.52235
221.27693
232.39144
243.93886
256.00476
268.69114
282.12185
296.45033
311.87144
328.63856
347.08882
367.68454
391.08713
418.30164
451.01133
492.38406
549.09853
636.81521
799.44665
-421.84786
-307.93524
-233.00359
-184.35154
-147.74603
-118.08901
-92.982251
-71.11678
-51.682399
-34.130517
-18.069818
-3.2106918
10.667114
23.734605
36.127554
47.956347
59.312567
70.273566
80.905795
91.267307
101.40969
111.37961
121.22006
130.97141
140.67236
150.3607
160.07416
169.85112
179.73144
189.75731
199.9742
210.43204
221.18654
232.30095
243.84825
255.91399
268.60018
282.03066
296.35887
311.77967
328.54645
346.99634
367.59166
390.99382
418.20789
450.91709
492.2893
549.00319
636.71922
799.34991
-421.92951
-308.01799
-233.08723
-184.43585
-147.8309
-118.17435
-93.068028
-71.202966
-51.768979
-34.217484
-18.157164
-3.298412
10.579025
23.646155
36.038748
47.867194
59.223074
70.183741
80.815648
91.176847
101.31893
111.28856
121.12874
130.87986
140.58059
150.26875
159.98205
169.75888
179.6391
189.66489
199.88172
210.33949
221.09393
232.20827
243.75547
255.82108
268.50712
281.9374
296.26538
311.68592
328.45241
346.90197
367.49693
390.89871
418.11235
450.8211
492.19281
548.90611
636.62146
799.25138
-422.01142
-308.10109
-233.17127
-184.52062
-147.91626
-118.26024
-93.154402
-71.289805
-51.856272
-34.305222
-18.245343
-3.3870277
10.48998
23.556686
35.948864
47.776903
59.132386
70.092668
80.7242
91.085038
101.22678
111.19608
121.03597
130.78681
140.48729
150.17524
159.88837
169.66506
179.54517
189.57088
199.78765
210.24538
220.99976
232.11405
243.66118
255.7267
268.41261
281.84274
296.17054
311.59086
328.3571
346.80638
367.40103
390.80246
418.01572
450.72403
492.09524
548.80796
636.52262
799.15173
-422.09303
-308.18394
-233.25511
-184.60524
-148.00153
-118.34608
-93.240785
-71.376706
-51.943681
-34.393134
-18.333753
-3.4759296
10.400591
23.466819
35.858527
47.686107
59.041144
70.000992
80.632105
90.992542
101.1339
111.10285
120.9424
130.69294
140.39316
150.08089
159.79383
169.57037
179.45038
189.476
199.69272
210.1504
220.90476
232.019
243.56609
255.63155
268.31737
281.74739
296.07504
311.49519
328.26123
346.71027
367.30465
390.70577
417.91868
450.62659
491.99733
548.70947
636.42343
799.0517
-422.17375
-308.26595
-233.33817
-184.68912
-148.0861
-118.43128
-93.326565
-71.463054
-52.030588
-34.480594
-18.421762
-3.5644818
10.311503
23.377203
35.768395
47.595472
58.950018
69.909393
80.540052
90.900055
101.041
111.00957
120.84877
130.59899
140.29894
149.98642
159.69917
169.47556
179.35545
189.381
199.59766
210.05532
220.80965
231.92388
243.47094
255.53636
268.22213
281.65207
295.97962
311.39964
328.16552
346.61437
367.20853
390.60939
417.82199
450.52953
491.8998
548.61138
636.32463
798.95203
-422.25297
-308.34652
-233.41984
-184.77164
-148.16936
-118.5152
-93.411116
-71.548218
-52.116355
-34.56696
-18.508721
-3.6520271
10.22338
23.288512
35.679149
47.505684
58.859707
69.818577
80.448754
90.808298
100.94881
110.91698
120.75581
130.50571
140.20537
149.89261
159.60516
169.3814
179.26118
189.28665
199.50326
209.96089
220.71521
231.82943
243.37648
255.44189
268.12764
281.55754
295.88503
311.30497
328.07073
346.51944
367.11342
390.51406
417.72638
450.43357
491.80342
548.51443
636.22697
798.8535
-422.3301
-308.42503
-233.49948
-184.85218
-148.25067
-118.59721
-93.493797
-71.631551
-52.200332
-34.651573
-18.593964
-3.7378927
10.136902
23.201434
35.591484
47.417451
58.770925
69.729269
80.358944
90.718015
100.85809
110.82585
120.66431
130.41387
140.11324
149.80023
159.51258
169.28866
179.16833
189.19372
199.41029
209.86789
220.62221
231.73644
243.2835
255.34892
268.03467
281.46456
295.79203
311.21193
327.97762
346.42624
367.02008
390.42054
417.63262
450.3395
491.70893
548.41939
636.13122
798.75686
-422.40452
-308.50087
-233.57648
-184.9301
-148.3294
-118.67668
-93.573965
-71.712403
-52.281858
-34.733767
-18.676818
-3.8213963
10.05276
23.116668
35.506111
47.331491
58.6844
69.642205
80.271368
90.629958
100.76958
110.73693
120.57501
130.32424
140.02332
149.71007
159.42222
169.19815
179.07769
189.10301
199.31953
209.77712
220.53144
231.64568
243.19277
255.25822
267.944
281.37391
295.70139
311.12128
327.88696
346.33552
366.92927
390.32959
417.54146
450.24805
491.61709
548.32703
636.03815
798.66288
-422.47562
-308.57343
-233.65023
-185.0048
-148.40492
-118.75296
-93.650976
-71.790123
-52.360277
-34.812876
-18.756607
-3.9018536
9.9716481
23.034917
35.423741
47.248524
58.600862
69.558123
80.186773
90.544883
100.68406
110.651
120.48871
130.23761
139.93641
149.62291
159.33486
169.11063
178.99006
189.0153
199.23177
209.68934
220.44366
231.55793
243.10506
255.17055
267.85639
281.28635
295.61388
311.0338
327.79949
346.24803
366.84173
390.24195
417.45366
450.15999
491.52865
548.23807
635.94849
798.57233
-422.54284
-308.64212
-233.72012
-185.07566
-148.47663
-118.82544
-93.724198
-71.864071
-52.434938
-34.888239
-18.832661
-3.9785854
9.8942543
22.95688
35.345082
47.169267
58.521036
69.477757
80.105901
90.463538
100.60228
110.56882
120.40617
130.15475
139.85326
149.53953
159.25128
169.02689
178.9062
188.93135
199.14778
209.60533
220.35966
231.47396
243.02113
255.08669
267.7726
281.20264
295.53024
310.95023
327.71596
346.16453
366.75822
390.15837
417.36993
450.07604
491.44436
548.15328
635.863
798.48593
-422.6056
-308.70636
-233.78557
-185.14209
-148.54391
-118.89352
-93.793019
-71.933622
-52.505205
-34.959211
-18.904325
-4.0509261
9.8212546
22.883241
35.270828
47.094425
58.445635
69.401829
80.029479
90.386656
100.52497
110.49112
120.32813
130.07639
139.77463
149.46067
159.17222
168.94768
178.82687
188.85193
199.06831
209.52583
220.28017
231.3945
242.94174
255.00737
267.69337
281.12351
295.45121
310.8713
327.63711
346.08573
366.67944
390.07955
417.29101
449.99691
491.36491
548.07334
635.78238
798.4044
-422.66337
-308.76563
-233.84606
-185.20355
-148.60622
-118.95661
-93.856853
-71.99818
-52.570472
-35.025173
-18.970967
-4.1182325
9.7533031
22.814666
35.201654
47.02468
58.375348
69.331034
79.958209
90.314946
100.45286
110.41864
120.25531
130.00328
139.70125
149.38706
159.09842
168.87372
178.75279
188.77777
198.99409
209.45159
220.20594
231.32031
242.86761
254.93333
267.61942
281.04968
295.37751
310.79771
327.56363
346.01233
366.60608
390.00619
417.21757
449.92329
491.29098
547.99894
635.7073
798.32842
-422.71568
-308.81942
-233.90106
-185.25952
-148.66303
-119.01418
-93.915151
-72.057182
-52.630162
-35.085536
-19.031988
-4.1798934
9.6910215
22.751786
35.1382
46.96068
58.310833
69.266035
79.892759
90.249078
100.38661
110.35204
120.18839
129.93607
139.6338
149.31939
159.03057
168.80571
178.68466
188.70955
198.92581
209.38329
220.13765
231.25206
242.79942
254.86524
267.55145
280.98183
295.3098
310.73013
327.49618
345.94499
366.53881
389.93893
417.15025
449.85581
491.22321
547.93071
635.63841
798.25862
-422.76206
-308.8673
-233.95013
-185.30954
-148.71385
-119.06574
-93.967408
-72.11011
-52.683745
-35.139757
-19.086831
-4.2353417
9.6349875
22.695188
35.081062
46.903029
58.252699
69.207447
79.833749
90.189678
100.32685
110.29195
120.128
129.87542
139.57291
149.2583
158.9693
168.7443
178.62313
188.64793
198.86414
209.3216
220.07596
231.19041
242.73784
254.80375
267.49008
280.9206
295.24871
310.6692
327.43538
345.88431
366.47822
389.87837
417.08964
449.79506
491.16219
547.86924
635.57628
798.19559
-422.80216
-308.90887
-233.99287
-185.35319
-148.75827
-119.11085
-94.013175
-72.156504
-52.730746
-35.187349
-19.134999
-4.2840681
9.5857204
22.6454
35.030777
46.852271
58.201494
69.155825
79.781738
90.137306
100.27414
110.23894
120.07472
129.8219
139.51917
149.20436
158.9152
168.69006
178.56878
188.5935
198.80965
209.26708
220.02146
231.13594
242.68345
254.74945
267.4359
280.86656
295.19482
310.61546
327.38179
345.83085
366.42485
389.82504
417.03629
449.74157
491.10844
547.81505
635.52143
798.13984
-422.83566
-308.94383
-234.02896
-185.39014
-148.79594
-119.14916
-94.052077
-72.195972
-52.770762
-35.227898
-19.176066
-4.3256375
9.5436645
22.602876
34.987804
46.808872
58.157692
69.111645
79.737205
90.092447
100.22898
110.19351
120.02904
129.77599
139.47306
149.15808
158.86876
168.64349
178.52211
188.54675
198.76286
209.22027
219.97465
231.08918
242.63675
254.70285
267.38942
280.82021
295.14862
310.56941
327.33589
345.78508
366.37917
389.77942
416.99064
449.6958
491.06241
547.76859
635.47432
798.09183
-422.86236
-308.97196
-234.05817
-185.42014
-148.8266
-119.18038
-94.083824
-72.228214
-52.803481
-35.26108
-19.209699
-4.3597088
9.5091691
22.567971
34.952507
46.773201
58.121668
69.075287
79.700536
90.055488
100.19176
110.15604
119.99135
129.7381
139.43499
149.11985
158.8304
168.60502
178.48354
188.50812
198.72418
209.18157
219.93596
231.05052
242.59816
254.66434
267.35102
280.78194
295.11049
310.53142
327.29805
345.74736
366.34156
389.74185
416.95305
449.6581
491.02446
547.73022
635.4353
798.0519
-422.88218
-308.99316
-234.08039
-185.44308
-148.8501
-119.20437
-94.108245
-72.253048
-52.828711
-35.286696
-19.235689
-4.3860639
9.48246
22.54092
34.925126
46.745504
58.09367
69.047006
79.671987
90.026691
100.16273
110.1268
119.96192
129.70849
139.40523
149.08996
158.80039
168.57491
178.45336
188.47787
198.6939
209.15128
219.90567
231.02027
242.56796
254.63422
267.321
280.75204
295.08071
310.50178
327.26853
345.71796
366.31225
389.71259
416.92377
449.62871
490.99483
547.70018
635.40462
798.02032
-422.89522
-309.00752
-234.09566
-185.45896
-148.86644
-119.2211
-94.125316
-72.270439
-52.846409
-35.304692
-19.253977
-4.4046362
9.4636102
22.5218
34.905746
46.725872
58.073797
69.026904
79.651668
90.006169
100.14202
110.10592
119.94088
129.68731
139.38392
149.06854
158.77887
168.55332
178.4317
188.45617
198.67216
209.12953
219.88393
230.99855
242.54629
254.61262
267.29948
280.73062
295.0594
310.48059
327.24745
345.69699
366.29135
389.69174
416.9029
449.60774
490.97364
547.6786
635.38243
797.99722
-422.90196
-309.01537
-234.10427
-185.46805
-148.87587
-119.23079
-94.135242
-72.28058
-52.856759
-35.315246
-19.264731
-4.4155882
9.4524642
22.510464
34.894223
46.714169
58.061919
69.014857
79.639461
89.99381
100.12952
110.09328
119.92812
129.67445
139.37097
149.0555
158.76577
168.54015
178.41848
188.44292
198.65889
209.11625
219.87066
230.9853
242.53307
254.59946
267.28638
280.7176
295.04646
310.46774
327.23469
345.68431
366.27874
389.67916
416.89032
449.59507
490.96078
547.6654
635.36866
797.98268
-422.90128
-309.01579
-234.1052
-185.46925
-148.87724
-119.2323
-94.136869
-72.282318
-52.858606
-35.317204
-19.266801
-4.4177698
9.4501699
22.508057
34.891703
46.711536
58.059174
69.012002
79.6365
89.990746
100.12636
110.09003
119.92479
129.67105
139.3675
149.05197
158.76219
168.53654
178.41484
188.43925
198.6552
209.11256
219.86697
230.98163
242.52943
254.59585
267.28281
280.71408
295.04301
310.46435
327.23137
345.68105
366.27553
389.67598
416.88713
449.59182
490.9574
547.66174
635.3645
797.97769
-323.53735
-268.15798
-216.91262
-175.94778
-142.44531
-114.24242
-89.919086
-68.540225
-49.436332
-32.121697
-16.238386
-1.5160944
12.253537
25.233265
37.553105
49.319581
60.621627
71.534722
82.123948
92.446392
102.55291
112.48965
122.29915
132.02135
141.69452
151.35605
161.04322
170.79401
180.6478
190.64625
200.83422
211.26084
221.98084
233.0562
244.5582
256.57011
269.19076
282.53937
296.76251
312.04504
328.62575
346.81787
367.04149
389.87591
416.13735
447.00949
484.35947
531.1828
592.05069
672.96693
-323.54071
-268.1605
-216.91468
-175.9495
-142.4468
-114.24374
-89.920272
-68.541308
-49.437331
-32.122609
-16.239216
-1.5168332
12.252881
25.232693
37.552601
49.319146
60.621259
71.534413
82.123705
92.446201
102.55277
112.48954
122.29905
132.02125
141.6944
151.3559
161.04304
170.7938
180.64756
190.646
200.83395
211.26055
221.98054
233.0559
244.55789
256.5698
269.19045
282.53908
296.76224
312.04479
328.62554
346.81771
367.04139
389.87589
416.13745
447.00975
484.35995
531.18358
592.05191
672.96891
-323.54628
-268.16495
-216.91836
-175.95263
-142.44951
-114.24614
-89.922436
-68.543278
-49.439129
-32.124245
-16.240685
-1.5181342
12.251743
25.231705
37.551754
49.318432
60.620674
71.533956
82.12337
92.445982
102.55265
112.48949
122.29903
132.02123
141.69435
151.35581
161.04291
170.79362
180.64735
190.64574
200.83366
211.26024
221.98021
233.05554
244.55753
256.56944
269.1901
282.53874
296.76193
312.04453
328.62534
346.81759
367.04138
389.87603
416.1378
447.01037
484.36093
531.18505
592.05404
672.972
-323.55369
-268.17115
-216.92367
-175.95726
-142.45361
-114.24983
-89.925795
-68.546359
-49.44196
-32.126835
-16.243035
-1.5202447
12.249863
25.230041
37.550294
49.317169
60.619605
71.533078
82.12268
92.445467
102.55229
112.48925
122.29886
132.02108
141.69419
151.35562
161.04268
170.79335
180.64703
190.64539
200.83326
211.2598
221.97974
233.05506
244.55703
256.56893
269.1896
282.53826
296.76149
312.04414
328.62503
346.81738
367.04132
389.87616
416.13819
447.01111
484.36213
531.18683
592.05657
672.97555
-323.5629
-268.17914
-216.93072
-175.96357
-142.45933
-114.25507
-89.930633
-68.550847
-49.446126
-32.13069
-16.246583
-1.5234917
12.246906
25.227362
37.547882
49.315017
60.617711
71.53144
82.121292
92.444317
102.55135
112.48848
122.29821
132.0205
141.69365
151.35508
161.04213
170.79277
180.64642
190.64473
200.83257
211.25907
221.97898
233.05426
244.55622
256.56811
269.18878
282.53746
296.76072
312.04343
328.62439
346.81686
367.04095
389.87601
416.13832
447.01162
484.36313
531.18846
592.05898
672.97897
-323.57395
-268.189
-216.93966
-175.97175
-142.46689
-114.26211
-89.937221
-68.557028
-49.451924
-32.136118
-16.251647
-1.5282002
12.242543
25.223333
37.544179
49.311635
60.614649
71.528696
82.118862
92.442186
102.54949
112.48685
122.29676
132.01918
141.69242
151.3539
161.04097
170.79161
180.64524
190.64354
200.83135
211.25781
221.97769
233.05294
244.55487
256.56675
269.18741
282.5361
296.75938
312.04213
328.62316
346.81573
367.03997
389.87523
416.13783
447.01151
484.36351
531.18946
592.06076
672.98173
-323.58697
-268.20088
-216.95064
-175.98197
-142.47649
-114.27117
-89.9458
-68.56516
-49.459628
-32.143406
-16.258525
-1.5346755
12.236462
25.217638
37.538863
49.306699
60.610092
71.524519
82.115058
92.43874
102.54638
112.48402
122.29418
132.0168
141.69018
151.35176
161.0389
170.78958
180.64323
190.64152
200.82932
211.25576
221.9756
233.05083
244.55272
256.56457
269.18521
282.53389
296.75717
312.03994
328.62101
346.81366
367.03802
389.87346
416.13632
447.01036
484.36282
531.18936
592.06139
672.98331
-323.60209
-268.21492
-216.96381
-175.99443
-142.48832
-114.28246
-89.956592
-68.57548
-49.469491
-32.152819
-16.267493
-1.5432037
12.228369
25.209976
37.531632
49.299899
60.603727
71.518589
82.109558
92.433655
102.54168
112.47968
122.29014
132.01302
141.6866
151.34835
161.0356
170.78636
180.64006
190.63838
200.82618
211.25261
221.97242
233.04761
244.54947
256.56127
269.18187
282.53051
296.75376
312.03652
328.6176
346.81028
367.03472
389.8703
416.13337
447.00772
484.3606