/*--------------------------------*- C++ -*----------------------------------*\
  =========                 |
  \\      /  F ield         | OpenFOAM: The Open Source CFD Toolbox
   \\    /   O peration     | Website:  https://openfoam.org
    \\  /    A nd           | Version:  12
     \\/     M anipulation  |
\*---------------------------------------------------------------------------*/
FoamFile
{
    format      ascii;
    class       volScalarField;
    location    "2";
    object      p;
}
// * * * * * * * * * * * * * * * * * * * * * * * * * * * * * * * * * * * * * //

dimensions      [0 2 -2 0 0 0 0];

internalField   nonuniform List<scalar> 
94133
(
172.37246
5895.3372
2311.9411
6301.11
10574.092
2001.0243
6122.3508
2181.7462
6086.5713
2842.754
6380.1682
10785.728
2352.9705
6152.6821
4267.1679
5905.2236
5437.4886
6184.6879
7984.0288
4463.1539
5978.3201
8165.6943
14325.974
4916.9471
-2708.4733
17631.428
5656.9788
-3801.0401
14468.624
5032.7549
-2335.4209
57304.943
1592.4467
-45425.84
155923.73
71850.891
6678.6217
-47826.862
58764.433
3135.3934
-45695.247
241987.86
-12288.378
-206120.91
811065.06
320146.71
12924.058
-205397.7
250182.38
-7540.3206
-204485.96
927214.4
-134158.88
-749227.96
4522829.9
1337990.5
-15667.827
-732674.53
943637.44
-113814.85
-716319.16
2558774.5
-932137.45
-2290375.8
24291207
4393929.5
-553742.05
-2266310.9
2591139.5
-858416.56
-2243421.1
1933658.4
-4490442.6
-6019264.5
87320230
6548952.7
-3806025.6
-5901824.9
2423794.4
-4175116.5
-5834987.2
-4701831.2
-13489793
-13126606
-12381793
15566140
-12713471
-12638306
-12157570
-11577311
-12324946
-11995646
-12448580
-31918089
-22487607
-19280626
-4.2140147e+08
-36860145
-21841450
-18862697
-28746697
-21176326
-18734809
-21341019
-31734204
-27422027
-24464932
-78410139
-30025218
-26247401
-23910836
-28191972
-25768628
-23787584
-26326187
-30954554
-29525582
-27687555
-14744902
-25370205
-27966353
-27084572
-27405256
-27867440
-26970807
-28654459
-30990754
-30541460
-29451912
10655717
-24734791
-29017024
-28906298
-27917601
-29087691
-28804747
-29854562
-30976603
-31021883
-30357516
25405837
-24877777
-29690444
-29911214
-28462329
-29826663
-29824701
-30482703
-30865663
-31191691
-30788070
33503303
-25183281
-30097571
-30444434
-28801189
-30252929
-30373557
-30791095
-30671452
-31207394
-30969705
36838845
-25523436
-30341695
-30712234
-29003698
-30486911
-30650671
-30914857
-30529283
-31205912
-31031625
39022838
-25750130
-30476120
-30822628
-29078790
-30600446
-30760551
-30932271
-30552850
-31202840
-31023317
38798506
-25645925
-30442742
-30806379
-29053011
-30572045
-30743947
-30928078
-30674517
-31187599
-30940489
36511764
-25332627
-30262420
-30669337
-28914364
-30413819
-30601972
-30874783
-30617733
-31057684
-30730052
39420362
-24712242
-29939217
-30391430
-28504086
-30096425
-30301243
-30664857
-30362406
-30674544
-30313626
22951096
-24338941
-29429680
-29937629
-27873011
-29513071
-29775784
-30133024
-29608631
-29619396
-29617950
2465182.4
-24399683
-28488846
-29329390
-26845258
-28335205
-28925906
-28847394
-26826771
-26478322
-28712306
-63259750
-25696807
-25966235
-28891471
-24777935
-25340160
-27595802
-25472969
-13282748
-17507404
-28274200
-3.9301144e+08
-17922796
-18027975
-31721040
-13887146
-16989064
-25164895
-15894760
23072257
2161826.4
-18380358
3.9619947e+08
18428683
6176207.2
-31851110
21369399
2109505.3
-15122562
5724485.1
51117631
64574813
37993497
2.390377e+08
36520876
31409504
78908861
45477666
35746340
23667592
66724569
1.8631543e+08
24668914
28329192
28018813
36247575
33844455
-2726948.4
30584330
75372518
2.486099e+08
1870864.7
40470542
28847031
17597565
25267739
4512659.5
29444073
87592618
2.8118017e+08
-6100397.3
89711433
38384944
14655727
30343635
25152752
30171696
93918314
2.875377e+08
-9223495.6
93698010
42472340
14292906
28736515
20136913
30213584
97016952
2.8074077e+08
-13603588
88037509
40513734
11300650
31031764
12882983
27717430
1.0575097e+08
2.7308229e+08
-23442858
65900576
30739395
2123502.5
33918467
1283487.8
17610117
1.3727408e+08
2.573022e+08
-39287119
50850569
17668493
-14414805
42893977
-7389371.2
-6628524.6
2.3119788e+08
1.4762116e+08
-57585797
57858413
-7757655.6
-40554687
52264041
-4637273.6
-34281352
3.7981702e+08
-1.5062531e+08
-1.0395196e+08
-2.5440566e+08
-71177330
-72124613
87502094
-20033185
-53151495
-1.1509279e+08
-67115559
22251153
3764270.2
46698240
1675191.4
-9730045
17443555
28808790
3.3125644e+08
24266468
50493292
-3.1472977e+08
38011729
-34722180
23397806
1.3286301e+08
23199429
4.2385414e+08
28069701
54358841
37134160
54701554
-17204756
76544907
15051448
4129578.4
19576948
5997544.2
43106329
32802985
42191745
44775775
-9851220.9
3755564.2
-6327355.6
32485593
14184499
62188820
20708372
-30514808
-1.1106584e+08
-58960176
-1.1298625e+08
-5.9151716e+08
-1.0799207e+08
-72585950
-45372580
-57986060
-92778487
-84397318
-70677119
1.417777e+08
-6.8160811e+08
5.9734952e+08
-14343515
-15866920
12193153
-131881.33
-17399308
-23819823
-4040372.3
-15187425
-13807455
-44006992
-16718714
18862386
3.033926e+08
20312930
-32263288
-24043448
-42435849
-25839070
-9795879.2
-14983419
4.1547032e+08
17009203
2.8808013e+08
16181091
-38881706
-26902431
-40299811
-62889043
-22857319
-15633797
-14423359
-15123415
11446411
-299466.13
9589539.1
636942.85
-22843240
-16215633
-19707802
-3821686.1
-14899989
-3009562.3
-10912487
4294518.6
20506347
9669471.4
45726998
44997908
36376296
30097894
-10795888
6464055.2
-22134593
49459738
23636652
29899416
80418748
9125009.9
19287810
7162496.3
34411445
28383732
40953095
27692247
-20719583
3484022.4
-10311816
28257401
63159486
25048094
17215773
-48801473
-1.381804e+08
-22001548
12594369
-53617767
8.1916415e+08
2765956.4
7478540.9
-1746760.1
2566880.4
14324727
-4322449.8
6945301.4
6655969.5
44508398
51883412
64573963
25033132
6525087.5
56718211
1.6440837e+09
40287621
68536365
1.3086157e+09
44306661
1.2635615e+08
33019656
45470185
38914486
57536226
34286968
15600529
32508500
40560299
34585098
35571497
43212523
37934381
16908537
44768220
22423855
32189293
-11463431
12889707
59688347
4.3816481e+08
5.0543605e+09
-3.6517466e+08
-4.3413487e+08
-2.4253874e+08
16236669
-7.8444948e+08
-71486379
-6288917.6
-34988367
-7.5854779e+08
-1.143338e+08
7.8858969e+08
-70202208
-51999793
-65189609
-1.0228917e+08
-2.9698524e+08
-1.5142994e+09
-2.0040957e+09
-84474167
-63347564
26280807
4551539.4
11254142
10931505
19055502
26354755
31860481
44818349
24151810
31541588
46421451
6475911.2
2222355.5
-4682780
-2030751.3
16848253
7201663.7
11369194
45701041
22287505
13091161
33315757
53008473
30624997
74323763
32695622
53953702
35449337
51707688
50584403
33609756
45606143
6349263.1
37943120
38332076
60928840
-84599227
-27904396
-1.3106298e+08
1997684
-67767313
1091555.9
-7.0921923e+08
-82126208
48522337
72771019
1.84447e+09
20333838
9.0076038e+08
1.1322028e+08
72359792
73499025
18148277
32019471
46110140
32938259
69208074
33062464
38747150
35129904
48721335
-1.0619663e+08
35745742
48038488
3.1489905e+10
8966718.5
3.788269e+08
25094187
10197039
4640141.3
16240220
11353159
22374183
25755548
5230233.2
13459645
21628661
11538397
26341188
29083164
20499403
34316393
25965097
37891557
13766125
18718403
24030604
11285654
57983041
2339.7563
-6.0542543e+08
-64052748
-2.9491792e+08
1.1801095e+08
-1.9387135e+08
-84218654
-75772231
-54498845
-88853987
-74890815
-76187104
-64122375
-80066393
3.8647645e+08
4.9272261e+08
-1.2236555e+09
-40626667
-1.3452298e+09
-48115562
3.6861823e+08
-1.3399458e+09
-51105497
4856.4702
5862.5472
1231.7599
1825.2608
4809.7576
2238.6395
5226.6586
1896.7155
5065.9988
2647.1075
5398.3011
6311.9646
9433.2401
6089.9908
9353.4885
6342.9537
9519.0225
10670.107
10833.792
1287.931
1389.8405
1791.5328
1562.9868
5267.6865
2185.6745
5170.2051
2651.6549
5426.5002
2380.2593
5269.8099
9356.4861
6192.3187
9429.9067
6376.1066
9571.9373
6250.7133
9431.8567
10905.627
10803.47
5035.9795
2109.8151
5125.2124
6133.6051
9338.8517
4906.8186
3120.8467
5153.5044
5880.8623
5875.2605
1418.3163
2076.8375
2863.963
3958.8983
5115.9363
2842.904
5461.6019
3434.0689
5349.772
4303.5704
5698.3663
9204.2486
6361.5183
9431.2801
6004.56
8392.3767
6280.2443
8261.02
10723.536
9159.8968
2052.6004
1852.4725
3948.3621
3427.7943
9467.5136
6260.1261
9333.2
6281.5884
8232.0198
6160.6876
8346.7794
10517.179
9056.9129
9247.0881
1605.3923
2913.0714
5185.3184
3543.5627
5454.7049
9296.092
6081.844
8387.1312
9195.3969
10266.726
3882.5534
5327.8363
9383.2309
6337.4425
5807.9543
5160.7255
2537.4653
3841.9939
5322.1094
11422.026
14593.396
5502.0565
5363.3864
5878.7388
10345.412
6600.8207
12505.25
7260.0174
7746.116
6162.4389
7389.9567
5277.6174
2083.8736
5638.1682
1657.3931
8128.0051
1572.1156
828.30495
5407.7771
4599.9133
14978.661
12953.939
8163.9036
777.75474
1051.5743
4097.1187
11718.567
5611.8193
10544.298
6701.7065
7511.0114
5374.4752
2169.2156
1651.5693
14590.643
42784.4
12891.841
6994.9709
35946.163
10903.279
4753.1675
-683.27336
2003.1955
-21300.514
-27853.923
16389.329
20816.872
48975.068
61925.059
-1468.7086
5495.1496
-1985.7062
2792.1928
-22302.509
5211.3111
-23576.95
-3768.7327
-27600.896
-31127.88
21401.542
18445.687
113506.67
63170.584
55188.893
-3360.5813
-31077.626
-29658.052
16665.76
50192.562
7485.7127
40986.072
13382.19
10170.638
-1189.4199
3737.1047
-21912.838
2110.9574
-29183.256
61647.741
186822.84
51512.73
13538.729
147750.34
29557.121
177.75256
-34626.188
-11356.849
-115954.22
-43070.821
-138105.03
70612.569
160484.75
89507.425
215580.09
500267.27
279027.46
-47907.864
-145058.06
-146369
90965.266
80005.398
531609.93
285384.2
248512.39
-46288.246
-146006.9
-144592.28
72818.563
223892.72
17411.392
12208.025
175667.58
41237.008
20168.677
-35108.423
740.13992
-2244.8568
-115057.21
-15716.235
-145081.31
273004.91
766142.46
213635.07
36632.793
579250.78
47797.219
-21075.562
-167459.55
-107112.77
-469621.55
-197275.8
-536025.42
311763.51
773934.36
408305.52
903560.45
2752393.1
1257085.7
-205801.67
-550479.49
-541112.7
418572.41
360861.73
2913339.5
1295468.1
2191598.8
1062055.5
-203546.48
-540061.61
-533005.81
322549.56
921506.26
54128.025
174482.07
22180.305
689681.64
101889.6
412850.74
-1413.3507
-163564.19
-28165.712
-63146.273
-438831.1
-133415.25
-526892.91
1049722.9
2398399.4
779754.17
34559.52
1618391.8
-244269.12
-174533.82
-646943.21
-692092.62
-1590062.6
-731720.93
-1727220.2
1253830.9
4221611.4
1801131.5
3052572.8
14353843
4861012.8
-733948.64
-1742667.6
-1736364.9
1862047.4
3097965.7
1491502.2
16034754
5052793.2
9252989.1
3747322.4
-723308.21
-1732647.1
-1719837.8
1279413.6
3049454.2
110032.82
535012.42
-37855.24
2104067.2
-44265.111
894559.86
-418441.47
-603266.28
-214544.7
-542064.78
-1510265.7
-792222.51
-1713156.2
2988126.8
3848181.4
1907662.2
-517982.84
1544044.3
-2611702.4
-1063057.6
-2082445.8
-3370832.4
-4622299.1
-2275628.2
-4843983.9
3911704
21388082
6540185.8
5925347.3
56483349
12317906
-2271883.4
-4822795.9
-4756872.6
6821289
13276662
4897556.1
66966676
13080141
31114651
8402718
-2248013
-4736554.8
-4688849.5
3903782.9
6127118.2
-242217.91
930096.21
-720874.4
3190211
-2002421.9
-95454.225
-2674976.8
-2012015.8
-1175756.5
-2927584.3
-4418393.7
-3383307.5
-4400105.9
-4684124.1
-3117119.9
-3576658.2
3104512.7
-7127862.5
434527.23
-3971879.9
-8912253.5
-10645678
-4709895.8
-5856199.4
-10739718
-10712806
-6048574.3
-10665300
5473593
72973845
12921683
-5560198.1
46303005
-1802248.3
-5929282.5
-10611733
-10459104
13825450
39919267
8483098.9
56710872
-1458818.6
28401097
-2581576
-5841613.2
-10411811
-10624148
-10298087
5869985
-4004942.9
-3242468.5
-1206925.1
-3883283.2
-6507588.4
-9594649.7
-8745731.3
-9977084.2
-5595317.8
-4684068.4
-5581643
-9920792.3
-10252126
-10143155
-10257529
-10276539
-4170628.1
-10045694
-10146996
-13628432
-34775355
-14083597
-13573630
-29678681
-22164737
-13271237
-12609904
-20727088
-18287813
-12447154
-17799038
-12744804
3727295.7
-11899068
-34476474
-62729500
-39122305
-12209216
-17686294
-17395850
-12010555
13542534
-9989163.6
-2.5699483e+08
-43610729
-79665892
-31780708
-12050879
-12023265
-17325034
-16670689
-17193359
-10394046
-30190802
-12376983
-12659777
-12564888
-26372240
-20395720
-24939989
-20331511
-12077004
-12401058
-12092663
-19338252
-17538855
-19201762
-17624928
-17169493
-12604333
-20346832
-19398175
-37778500
-37235614
-32535148
-24364211
-34454978
-28508790
-22731120
-19961879
-26957909
-24111226
-19413214
-23527667
-36553828
-48502991
-42739381
-32880818
2.045725e+08
-27807291
-18941667
-23355669
-22929665
-50294048
-40128235
-33399660
-1.1599327e+08
-35019337
30014619
-26231887
-18130851
-18743383
-22831402
-22092805
-22699026
-32414999
-28988522
-22364882
-27578458
-22405128
-28782400
-25882774
-30608315
-26376205
-19147915
-21108262
-19289948
-24954505
-23104198
-25162763
-23357020
-22707753
-22436124
-26459945
-25419204
-36550301
-35559780
-34313181
-29282086
-33919345
-30663048
-27873660
-25204864
-29669989
-27675199
-24646621
-27239116
-31698515
2.2694494e+08
-23396544
-30453289
2.5382263e+08
-17404267
-24014594
-27046213
-26556936
-29834035
31210308
-24145256
-23408452
-22158985
29150994
-21650937
-23223731
-23774691
-26443393
-25971190
-26306990
-27704138
-26247054
-26514292
-30846994
-27168236
-27407065
-27754247
-31249418
-28736214
-24150491
-26081143
-24411780
-27456407
-26564174
-28015329
-26828820
-26327181
-27268746
-28869772
-28215968
-35293754
-35103643
-33798589
-30942890
-33646660
-31501206
-30059381
-28271923
-30858157
-29567548
-27878821
-29285366
-30353888
2.5680012e+08
-16717441
-30475476
2.6459449e+08
-16032026
-27198984
-29111335
-28654026
-21127849
25004177
-21566292
6379184.6
-19706026
21258909
-21989304
-26683806
-26948979
-28545025
-28317809
-28418645
-26196413
-26618292
-28066635
-31305317
-29093588
-27765371
-28852774
-31578102
-29895198
-27167566
-28468958
-27427596
-28835396
-28544814
-29474848
-28772884
-28440236
-29230447
-30027084
-29621476
-34927623
-34699592
-33555722
-31614728
-33375627
-31814393
-31032698
-29870636
-31371330
-30509105
-29618293
-30327744
-30462107
2.6574037e+08
-16046964
-30467234
2.7037339e+08
-16291585
-29012102
-30187421
-29807852
-19542406
17703725
-22239718
22982994
-19390365
15860699
-22923846
-28722622
-28783728
-29715012
-29625141
-29606938
-26796064
-27349702
-29069319
-31615124
-30089927
-28352401
-29589451
-31744227
-30513367
-28887460
-29719198
-29102675
-29677048
-29660067
-30256199
-29836763
-29624609
-30217844
-30628681
-30363272
-34625136
-34245716
-33303609
-31841309
-33021975
-31825152
-31435193
-30651898
-31517712
-30933818
-30489295
-30817147
-30447513
2.7109155e+08
-16372385
-30379319
2.7304484e+08
-16711743
-29999452
-30710788
-30416076
-19382579
12919886
-23127435
32414579
-19493567
12547976
-23608503
-29843226
-29808207
-30342230
-30319657
-30254859
-27469719
-27804153
-29724120
-31752650
-30612540
-28739908
-30036733
-31803672
-30823075
-29849539
-30383480
-30014330
-30168047
-30270647
-30654035
-30401666
-30267820
-30723615
-30921309
-30734837
-34100372
-33680731
-32912220
-31795431
-32566084
-31670827
-31517715
-30990693
-31471692
-31089570
-30886543
-31015832
-30375686
2.7306317e+08
-16818737
-30283987
2.7220034e+08
-17292317
-30513753
-30939185
-30719857
-19565697
10071127
-23746952
36641179
-19854277
10807951
-24053439
-30431862
-30361788
-30662794
-30668515
-30591953
-27855484
-28034533
-30115795
-31778933
-30868830
-28972630
-30294101
-31764829
-30952372
-30371719
-30714677
-30492219
-30441826
-30589458
-30833218
-30680310
-30599921
-30963397
-31034972
-30897772
-33523440
-33165788
-32450485
-31625930
-32169054
-31523339
-31449257
-31106200
-31396380
-31131185
-31040200
-31079961
-30222321
2.7174598e+08
-17435642
-30124115
2.7023011e+08
-17712767
-30766002
-31023532
-30854051
-19957942
8686315.1
-24141820
38498388
-20172263
10248419
-24303590
-30720813
-30644047
-30807029
-30816857
-30742886
-28043346
-28095157
-30336724
-31693693
-30961910
-29076808
-30428910
-31552728
-30962714
-30638884
-30854492
-30720581
-30581694
-30733562
-30882599
-30791827
-30745673
-31039650
-31027215
-30932505
-33050160
-33106884
-32099404
-31508370
-32144757
-31514731
-31389985
-31134628
-31392829
-31134739
-31085383
-31085415
-30065813
2.7030066e+08
-17716417
-29981340
2.7121929e+08
-17659783
-30868586
-31031443
-30867991
-20176458
8952301.2
-24327988
39788784
-20114809
10445276
-24299954
-30831282
-30758663
-30822007
-30831696
-30757575
-28061335
-28079139
-30447672
-31475805
-30958714
-29075589
-30439888
-31514066
-30957145
-30749170
-30884217
-30801921
-30594290
-30747137
-30882022
-30799774
-30759384
-31020148
-31019507
-30930405
-33266198
-33713230
-32230543
-31534494
-32536954
-31627025
-31401504
-31131306
-31444920
-31103504
-31080042
-31040074
-30055860
2.7194601e+08
-17524412
-30158781
2.7407471e+08
-17165403
-30853453
-30970416
-30768845
-20043837
8724873.5
-24265997
38070551
-19777700
10303982
-24088432
-30818114
-30741414
-30715406
-30731465
-30645129
-28056393
-28044475
-30416104
-31537094
-30957411
-28971454
-30307474
-31672287
-30940916
-30730401
-30877695
-30788046
-30464859
-30634259
-30837293
-30711984
-30650443
-31023104
-31020233
-30897983
-33746774
-33904176
-32602903
-31654222
-32726428
-31675143
-31454450
-31084137
-31428343
-30974454
-31015385
-30889386
-30166242
2.7395558e+08
-17014442
-30141701
2.7429035e+08
-16497257
-30725729
-30798830
-30542825
-19694131
9062301.2
-23995457
36528493
-19176432
11685477
-23509356
-30686202
-30595948
-30476401
-30495463
-30387964
-27973791
-27688429
-30256095
-31690550
-30923230
-28648337
-30034578
-31764304
-30806087
-30585348
-30810140
-30670280
-30196005
-30376270
-30663579
-30479278
-30394571
-31007540
-30905553
-30740093
-33924500
-33998599
-32735009
-31657944
-32739433
-31504832
-31395549
-30915116
-31189773
-30640762
-30825286
-30544461
-30106082
2.7618072e+08
-16153899
-29920669
2.7110951e+08
-15635488
-30461439
-30441823
-30148595
-18847462
10784261
-23271328
30552631
-18546971
15276647
-22577212
-30412556
-30295808
-30068704
-30110158
-29937662
-27488128
-26988458
-29931589
-31694583
-30735106
-28057091
-29523954
-31510560
-30398199
-30281763
-30585219
-30387970
-29694009
-29903288
-30223759
-29998657
-29933121
-30838700
-30511832
-30311470
-33959537
-33814981
-32695143
-31398077
-32373612
-30751488
-31066450
-30507427
-30390259
-29923229
-30414961
-29891191
-29813243
2.6810142e+08
-15636699
-29390877
2.6546729e+08
-15739625
-30020438
-29819514
-29577348
-18717145
14984070
-22364178
8877258.6
-19373372
20365570
-21615769
-29997262
-29787948
-29488194
-29697333
-29235327
-26766067
-26068449
-29342657
-31344073
-30225084
-27171440
-28553321
-30682074
-29395838
-29737810
-30043259
-29818308
-28725813
-29074918
-29197179
-29042969
-29176103
-30341188
-29513302
-29286729
-33588682
-31865543
-32073156
-30352477
-30054258
-28066257
-30000516
-29646765
-27893714
-28450460
-29665990
-28833997
-29085007
2.6385578e+08
-15837324
-27749655
2.4566192e+08
-18003463
-29420288
-28939319
-29036158
-19741263
20789510
-21354766
-34072590
-23115754
25044866
-21197843
-29651666
-29014947
-28933171
-30055265
-28245247
-25737884
-24908263
-28158299
-30298206
-28958160
-25523007
-26156088
-28310653
-26727041
-28779137
-28762279
-28674377
-26399077
-27534964
-26616638
-27016090
-27985303
-29073389
-26826696
-26660239
-30899622
-22498309
-28801486
-26741949
-20248759
-19810490
-26725603
-27890053
-20765420
-25259445
-28509382
-27153524
-27132871
2.30518e+08
-19488913
-20484298
50851691
-22126773
-29007210
-28242959
-30467445
-25379362
22235802
-21431219
-3.0794774e+08
-31031237
-8290458.2
-19602828
-30539315
-27960098
-30164523
-35056104
-27117645
-24571355
-20041271
-25020650
-27092276
-25494437
-18870972
-18973578
-19932875
-18897865
-26950835
-25459531
-26190186
-19903497
-24255208
-19458389
-22095911
-25955098
-25585272
-18978370
-19321941
-15860153
16439511
-7921700.6
-15150919
-14814082
-7314521.7
-14850692
-17294359
-18733125
-12733247
-26503831
-20241305
11132113
-15747102
5838294.5
-7876778.3
6235660.4
23155175
-15826755
-14548844
-15886480
13558085
200736.68
12454784
1720952.3
-24973422
-17902558
-27974550
-3762848.2
-17140910
-1909315.3
-25106943
-36511384
-31146525
-30166650
-28113842
-33823470
-32196847
-31059764
-51740579
-1.1131822e+08
-72659689
-1.3515754e+08
-50885819
-53572284
-1.3823936e+08
-27636894
-17295293
-24115597
-1999406.8
-23984020
-3205729.4
-16400739
-14316009
18271390
-19671845
-15122499
861178.61
-1906566.8
26783783
50202766
28199537
18249448
15126214
29442511
6633217.8
2444374.7
-1595554.5
17154140
-14741769
16084250
4.7228385e+08
1.3407666e+09
60666354
48745207
85009909
59457495
54066053
74730317
-32560293
-27506560
-24447640
-8829228.1
-40219878
-19016185
-11996284
5.615887e+08
2.3901069e+09
92608369
1.1554978e+08
8.864418e+08
1.4651863e+08
81716925
85748013
2.6482476e+08
-44170863
-52149577
-28402508
-25692151
-44449151
-21402694
-53494445
30650300
54436538
26847113
16204714
22086172
30947026
16721302
24465214
32133892
10158550
27501575
55296462
55718821
67801523
51246870
49707752
55064276
57527685
27701931
38782550
27523547
23455905
1.5964231e+10
83636481
2.0737826e+08
1.1032677e+08
1.2050103e+08
90319028
3.1839673e+08
52863624
40060240
33600405
63725705
1.1730297e+08
43243707
36227309
32664768
33328251
81888387
1.6617519e+08
15545416
32187798
40014966
41918424
59219675
64182737
71111764
43341631
50481136
61459495
6.3355631e+08
1.7435665e+09
76527716
1.344578e+08
1.0206727e+10
31358735
42760097
30507470
30787389
31631845
25561885
19930960
66062983
27105647
26664040
29548539
38131681
-2314951.5
20634813
56486002
2.9737896e+08
79638581
63292901
51953388
57718092
43232571
31367714
70007045
74731166
68003830
75902060
305475.22
-9639658.1
16966747
2385055.3
70329848
9.6689682e+08
42582690
72042559
-1.2091884e+09
35423024
39810758
5802331.9
17343431
32189787
4611779
31570480
-4969469.9
31623042
18726306
26664851
36675978
20715754
22354106
43701834
25961281
35284466
31737759
10823423
71298762
3838443.2
9123350.9
85177427
29290256
76274688
84811945
78297458
86388527
-12077592
-16033913
-859618.73
-6821161.6
73334297
50133304
39179825
83919858
6.1454605e+08
87579110
15793154
-4830217.7
10828528
35862775
-2885919.8
97032689
41097379
26209700
14693768
26327689
17102203
16692546
36912934
29712614
29673903
53670309
18651194
9394472
84321396
24090313
11808848
79798058
29880193
87677323
93591759
88943265
94224756
-16782268
-17890783
-7943930
-10229666
87188398
5.7390591e+08
91767075
93230141
4.7441513e+08
1.0051226e+08
10601001
-8460976.3
9527146.3
1.0238627e+08
46540289
1.1148202e+08
40779950
26532692
14415610
26483849
15832906
12641285
55084761
17730164
28918235
54215083
16909783
12593037
78562815
21936268
13287153
80979110
30182873
94906835
97980423
95393806
98112317
-18430299
-20874425
-10972610
-14020150
94396643
4.6891155e+08
1.0001659e+08
97101527
4.6835772e+08
96853019
9347317.8
-12046627
6828172.4
1.106512e+08
39369924
1.0598451e+08
40493718
26315973
11944252
24540174
13061722
17778271
53412258
17365397
30073433
48641563
21687364
13463808
81725910
14962465
12340206
84688175
28704393
99033361
1.0605293e+08
99086930
1.0585517e+08
-22632836
-29825479
-15605157
-22586694
98048603
4.7185571e+08
96319991
1.0397926e+08
4.9114146e+08
81559043
6158428.9
-20349900
-1487287.4
1.0527174e+08
42628414
82062334
32128143
23318225
3657744
16343655
19923715
24665611
47727609
22136703
33154148
40271054
29799513
11076075
84827318
3711920.3
3772583.2
84054409
21184569
1.1058993e+08
1.3633333e+08
1.1032495e+08
1.3497408e+08
-33372092
-45980325
-25714138
-37141189
1.0781213e+08
5.0023204e+08
78138094
1.2985013e+08
6.7064876e+08
68640739
-3010954.7
-34772665
-16815608
76114599
21525472
56409445
23393111
12723618
-11873002
-2979347.3
27386061
43674979
38701322
31730874
40719298
29550435
47401006
-112894.38
82396051
-6098130.8
-16176595
70193420
1111459.1
1.5122091e+08
2.2969255e+08
1.4918055e+08
2.2052448e+08
-51179985
-51055095
-41409317
-50213873
1.4243123e+08
7.3716576e+08
69432951
2.1430985e+08
-1.2999083e+09
95811835
-19324873
-52392028
-41099090
56518940
24817542
75464113
33395796
-9898854.3
-36659097
-31029399
47411991
59134782
27748426
49754860
49381308
2524493.6
65042219
-23321063
60975611
-24876834
-38356559
11897428
-29526209
2.7502044e+08
4.4521916e+08
2.6095188e+08
4.1388903e+08
26571949
-50130269
-96944031
-1.3397277e+08
-54362865
-96326218
2.5729458e+08
-2.3843575e+09
1.064537e+08
4.049678e+08
1.9705086e+09
-3.6272515e+08
1.4840262e+08
92522112
20039602
3.4839623e+08
39925570
-57193552
-32842531
-44920509
-91155735
-72331428
82432531
41454944
-86711685
-14498739
-36489561
-69133719
-52860152
65615731
82713759
9780292.3
67678807
60567890
-3736356.3
93641089
-35830819
1975103.3
-13248546
-46936432
-48693043
4.8961108e+08
4.6877751e+08
-50301650
-2.3851952e+08
-1.8724062e+08
-1.2146706e+08
8.1112596e+08
5.9363267e+08
1.3978701e+09
8.4774418e+08
6.4516006e+08
1.6419545e+09
-1.4066129e+08
-70543987
-80256195
-1.3658314e+08
-99790404
-86236824
-75796151
-7.6271397e+08
-1.7503099e+09
-1.9285594e+08
-3.5352943e+09
-1.5015257e+09
-57589658
3.5702149e+08
2.3921182e+08
2.1901336e+08
4.2927352e+08
-10092067
99692378
-62931562
-2.9831957e+08
-58246507
-71768290
-86466106
-44008314
-46714673
26515066
4829522.2
11926466
19752731
28334525
20488185
13717620
31826566
16120540
31077962
28157333
10542189
3860939
6285479
7286531.5
6320669.4
10157252
7714624
33774865
49028534
39566665
46869848
32141353
42564712
25439828
46046053
33681399
40122152
46985817
45292510
39942192
32876257
46743442
1416833
-4432526.2
623023.25
-8923369.8
-5797111.4
-2315561.1
-5528429.9
-2596951.8
1459455.4
11187943
50100807
23159897
27644932
8446692.1
17728286
8188299.7
7054034.4
14106156
22152660
5022345.2
10917784
16840090
47180281
36897015
30626353
37251970
42063008
44674844
37379183
69597435
1.2752173e+08
1.1047562e+08
97216191
83289348
89158044
64879035
63226753
69275137
1.0900646e+08
59162650
74261372
78062703
51633866
44190080
58740515
49299247
51206384
43125774
59876772
56950721
25181691
2.5142956e+08
-44433489
85142785
29113388
73296373
-53625467
-50820684
-1.2305984e+08
-1.3396304e+08
-79426763
-1.3994035e+09
-13484859
5716425.1
21243210
39562200
-3331352.3
11527188
29470612
-38034728
49364198
-1.3968545e+08
2.4864568e+09
-4.8230285e+09
74447998
94689943
6.1487219e+08
1.3067345e+08
2.8255436e+08
1.2140675e+08
3.8894843e+08
1.1822378e+08
70637227
17041559
52132720
38646558
46528802
34009115
59947025
83184224
1.0713777e+08
8.3024119e+08
2.3212357e+08
43211481
35835775
35279857
37523143
36735377
35353441
37555707
35241582
90696251
7.5122466e+08
1.378896e+08
2.9773946e+08
1.2567549e+08
79221553
71004151
48364941
41691499
81914524
36985475
72322628
66155408
-2.3964949e+08
-1.4044496e+08
-60928451
-1.8603291e+09
-39711832
-19992683
-25803259
-10170703
-43298503
-1499037.1
-20215855
-1.1359765e+08
-34680431
-47798694
-26523673
65633704
54527931
46816126
-6.1459588e+08
-9.2457433e+09
6.6722085e+08
-83359376
-1749659.6
38753646
9570539.8
3679151.7
-15048720
1.6099006e+08
-2.4389502e+08
14799570
-24552587
70231998
27276402
21821014
16601542
29507516
16966452
31702472
25948867
30662467
38570898
35918547
43330699
28147729
39092200
38638646
31177699
35641583
43084148
39238355
38928960
31594520
38897026
29671012
27356818
39041787
30632303
38293164
1131848.6
-5272246.4
-9024948.8
-3397120.5
-5458221.1
1372430.6
-3155182.3
8426839.3
3056660.6
-247658.98
19576964
-3862767.7
10326906
2225790.2
-7925485.5
-3504583.2
-93491.521
-4633695.7
-2030770.2
3741416.8
10322947
4530479.6
18243416
14527519
9501979.1
4683605.7
22407679
15256252
26097062
43019074
16243191
72760335
12512597
8608954.1
16961500
28719747
6076099.7
13913412
28159012
14984457
99443317
-60384021
-2.143069e+08
49723807
39175736
-1.2306945e+08
60048286
4.7963072e+08
-20323331
3.3577215e+08
2.4962136e+08
-56885220
-7.2679975e+08
-1.0244879e+09
-4.700746e+08
-6.0370825e+08
-1.7882496e+09
-6.2253463e+08
-4.7150488e+08
-22589594
-96347443
-1.0662175e+08
-2.040267e+08
-93941260
-1.1692477e+08
-80777661
-80325911
-87200125
-87040013
-92880794
-84185169
-83233361
-81772272
-79950666
-81256055
-85669009
-81262791
-83408288
-75076309
-81382011
-76061778
-64176057
-80609683
-76273971
-73112393
-65526268
-80002971
3.3854472e+08
1.9580133e+08
1.5277665e+08
5.4127259e+08
1.9559496e+08
4.6537368e+08
2.3257618e+08
2.9843144e+08
1.274776e+08
1.8315445e+08
1.9871606e+08
3.6564272e+08
1.114651e+09
5.9067172e+08
2.7871477e+08
3.2209355e+08
2.1927799e+08
-1.4499201e+09
-9.1037101e+08
-2.1868267e+09
-3486569.2
1.0736264e+09
1.3181994e+08
5.7616175e+08
1.2649889e+08
1.3354666e+08
7.718316e+08
-8896011.9
-15969195
-15057196
-10558852
-7780363.5
-15161698
-14159933
-6216479.7
-14595845
-7067057.6
-7449730.3
9073941.8
6703803.7
-760625.78
813761.33
320433.89
4053016.5
-2625168.1
-5112571.9
10612360
7800459.1
7241418.5
-444444.92
2857549.8
1827471.8
-9597.5573
36601.255
3780647.1
3593992.9
-2765543.7
-5443872.9
-5392366.9
-2663276.7
-16915948
-20242642
-18062688
-23002214
-21408638
-21911456
-21014184
-20732232
-18669939
-3338438.7
-6330548.9
-10645074
-7984186.9
-9098350.6
-13194742
-13939108
-11023990
-10522517
-14545218
-19125013
-17750011
-15300928
3474543.1
-15396293
-11616490
-2992028.5
-10420586
156190.7
-1235646.1
12863816
34264930
-30103113
-47350111
1313139.8
23941285
-11786249
39528167
87477117
51531971
35538863
26925684
71136769
26628113
21715860
32636659
19512461
8576892.1
15562966
10422410
1.516837e+08
1.2764391e+08
81779425
52230813
2.2064482e+08
1.2012079e+08
65676235
-39215927
-35988260
-42097340
-38664402
-37666675
-44060117
-31299407
-29833687
-40494253
-38766235
-26885733
-32378092
-31208292
-46752294
-42787655
-64194758
-56226952
-47575427
-51038346
-17935350
21221350
-17443877
4332560.5
-14495625
-34497485
1017621.8
1.346024e+08
5.1263003e+08
71436522
-6071160.7
3.5456574e+08
59271765
77011213
4.6993415e+08
1.0145338e+08
97550993
23449852
1.2114153e+08
1.2127368e+08
45531788
-40606766
-38320872
-37608840
-44285512
-36486157
-43768653
-42096844
-33738353
-28822123
-29589159
-26552580
-31901052
-29443509
-30260121
-36779508
-31550514
-34157860
-32935155
-62791809
-33335024
-47537332
-41728823
-37738829
-47866945
-33803731
-65540460