/*--------------------------------*- C++ -*----------------------------------*\
  =========                 |
  \\      /  F ield         | OpenFOAM: The Open Source CFD Toolbox
   \\    /   O peration     | Website:  https://openfoam.org
    \\  /    A nd           | Version:  12
     \\/     M anipulation  |
\*---------------------------------------------------------------------------*/
FoamFile
{
    format      ascii;
    class       surfaceScalarField;
    location    "2";
    object      phi;
}
// * * * * * * * * * * * * * * * * * * * * * * * * * * * * * * * * * * * * * //

dimensions      [0 3 -1 0 0 0 0];

internalField   nonuniform List<scalar> 
279700
(
1.084676
-3.5256636
-0.13434221
-5.3255474
-0.61600151
1.3829932
-0.81848819
-0.68890016
0.55929542
2.9081518
2.4432769
-6.0777948
0.40157259
-0.48849664
0.080003308
7.6576678
-5.9697185
-1.0156378
-0.71474304
-0.013425675
1.5895943
-0.17231078
0.053660404
-1.4247546
-2.9819628
0.051836933
-0.14036504
3.1243678
0.081850081
-0.54096587
0.68162059
-0.10027209
-0.09637025
1.0819443
-0.96587878
2.2275274
-2.7421077
-0.70116283
1.0318546
0.045312342
0.29432152
-1.7395783
1.7715572
-0.24308236
-0.13466662
1.6745471
0.99040694
-2.3623062
1.8650933
0.26114644
-2.4638897
0.47204911
-0.0028820937
-1.7229562
1.8298779
-0.13992954
-0.4860067
-0.69527201
-0.2488295
-1.6884694
-0.087386308
1.8291386
0.89764562
-0.081136151
-0.92722434
-2.0238521
2.2108796
1.6816528
-0.85273951
0.16295697
-0.14183776
-1.8834603
1.7062012
0.3815167
-0.17828779
2.8119599
2.24801
-3.7951888
4.4365106
-1.7867199
-3.9069041
0.25063571
-0.13201658
-6.1257659
6.3848595
-0.13155347
-0.2355561
0.61154894
-6.8417966
4.4332262
6.8442985
0.2335724
-5.2789493
0.62594726
0.29023478
-8.4051118
8.0004198
0.15430923
-0.66073943
-5.1310206
0.10268021
-6.7675431
5.3342598
-0.14827455
6.6193864
3.2859601
-5.3617192
-1.5863424
4.9369424
2.0067739
-3.2761231
0.2707848
-6.4025054
-0.2024262
6.7022971
-0.023831347
-0.33778564
-0.885543
0.26507672
-5.2158201
2.1599665
3.6769063
6.539327
1.8604536
-7.6312085
9.6995728
-2.2709849
-8.1933027
0.36216594
0.70316961
-12.482942
12.53995
-0.76045875
-0.35509197
-5.3794999
-12.614787
2.434453
6.9353439
8.6279452
-11.700099
9.489302
0.53607012
12.414956
0.4945435
-11.23012
0.49072873
1.3099912
-14.876859
14.071425
-1.3784117
0.38885364
-10.941461
-0.11383883
-12.803565
12.337969
-0.073695145
11.599849
6.290611
-7.6907689
-2.799017
9.2734065
2.5498823
-7.6215619
0.49802999
-12.693998
-0.77084753
12.776935
0.7023489
-0.50926025
-5.8032882
3.6286932
-11.361268
6.213886
7.3276991
6.2029523
-15.874391
14.496133
17.643143
-5.3768766
-17.090113
-0.13441202
2.188509
-20.519971
20.263583
-2.2015171
0.40518077
-15.353166
-0.53238624
-17.933082
16.266434
0.723172
16.831202
8.2240006
-3.3386885
27.79516
-0.092217477
-14.613891
-17.973773
-20.947041
17.577596
1.6907175
0.58684579
-20.966155
22.059258
2.2560144
1.1703933
-24.941086
23.368544
0.31550005
-2.1677749
-14.668861
0.047050789
-19.495272
17.848019
-0.30374814
16.574277
12.94921
-15.637183
-4.1372686
17.554193
4.5855696
-15.313388
0.50041085
-20.216874
-1.9404875
20.308355
1.6718698
-0.32197968
-15.131646
1.3528306
-16.566458
16.914872
-4.8823611
18.314047
11.630142
-30.978946
22.701295
33.750062
-10.789513
-26.31276
4.3500033
-2.2233457
-33.455871
32.175269
3.8277911
-4.6731286
-27.324971
-7.4264783
-22.992171
25.551128
0.51815036
31.675601
43.125418
3.8938459
36.590655
3.3158523
-53.371037
-33.554508
-42.945588
2.4182904
33.907359
1.2896911
-39.6962
45.026946
1.4454018
2.5156189
-41.937543
37.955784
0.86555321
-0.84411197
-26.064274
0.20269961
-28.246963
23.73995
0.21858931
30.150643
24.210362
-31.466556
-11.166364
32.763616
13.422972
-27.763628
-1.7618909
-34.743612
-4.4843857
32.882901
4.8883597
3.2191904
-30.389724
1.0475113
-26.602287
27.815091
-7.8830006
36.013344
33.487956
-67.74193
38.74571
66.913636
-29.885613
-41.519473
9.8617711
-12.98434
-56.367056
50.825381
17.905397
-9.2407288
-50.484891
-9.3070291
-33.036222
34.71063
-0.28016941
58.398492
101.40526
12.179134
107.2256
15.176972
-122.16104
-113.82584
-99.939958
5.9508978
60.860403
5.51816
-68.934851
96.545568
-6.2061875
1.3188028
-66.870966
60.282226
1.5748197
9.901668
-45.778906
0.92893478
-38.616217
31.176079
-0.21071127
52.501093
40.289421
-68.777803
-28.435915
65.479042
34.936434
-43.49093
-11.650483
-57.982104
-9.8119648
52.1853
10.874679
16.384952
-42.9568
-0.68330995
-35.750969
27.890368
1.4340471
50.066966
68.567409
-132.45376
29.437783
114.63487
-62.171288
-18.014861
15.954733
-40.311328
-80.609586
68.280598
51.643586
-14.95779
-70.841298
6.9565212
-40.522908
33.762175
-4.3238116
74.969425
224.48313
52.468265
352.88872
59.053135
-251.27573
-437.61748
-218.20245
15.123322
76.186972
9.2636917
-64.594011
182.22258
-32.04838
1.899699
-99.855812
82.449429
3.7441882
43.810961
-76.956035
1.5807124
-44.648844
34.488259
-0.60279697
86.138923
31.026383
-128.43172
-53.859649
119.12919
52.400171
-20.264282
-39.425782
-83.370878
-16.091911
70.956212
17.936579
49.996037
-74.064514
-1.2682227
-41.324727
32.170017
3.461053
81.026489
85.162698
-186.86227
-48.968242
144.87633
-76.668008
82.459605
18.452947
-92.901114
-76.291836
60.483146
108.45556
-18.198421
-99.102114
1.9324063
-28.840278
21.122862
-1.9612751
106.84901
298.5894
131.45145
941.52924
143.31268
-235.21128
-1279.6715
-316.08565
19.6694
-31.588058
7.8987443
84.375551
235.7301
14.727382
-99.639921
-110.42663
81.722688
112.08997
1.5266501
-113.24543
2.1025113
-36.664633
27.272128
-1.3998536
121.93536
-39.174329
-180.71335
-67.258182
151.65103
66.426123
69.068795
-88.174484
-80.418426
-16.713606
65.397272
18.266604
101.64282
-103.09682
-0.69558751
-34.490526
26.729755
-0.34425164
111.89792
-26.804081
0.92528084
-26.506503
43.029245
9.3560792
34.036916
-80.4668
-181.64836
50.705745
-24.180032
201.55258
8.7315059
-145.21489
-12.422081
6.9803358
150.1875
-8.2621071
-122.06669
2.0672605
-0.08440771
-0.45866257
-3.1383777
123.68111
-399.95597
53.671599
-34.98279
5.9917835
159.03676
216.23869
-39.371498
0.51562923
-223.79525
-17.824599
244.05633
36.419492
6.5678802
-164.13763
-20.809275
14.196374
169.77348
-5.5905503
-132.76241
3.3822647
-7.1588902
6.8932675
-3.6400894
133.28615
-157.00221
-90.995508
-13.221449
64.948017
21.575475
174.69578
-135.97541
-21.471436
-0.74471196
15.101707
2.4617833
140.62832
-128.28216
3.1617332
-5.5962956
3.6910342
-2.7773051
129.80328
-63.680677
-2.2349714
-1.1178231
65.885748
1.1478711
9.8062482
151.37453
-139.02053
-117.96853
0.87737391
94.931004
11.277139
-133.46545
71.766286
-58.221925
118.90573
-10.261563
-117.1114
5.6271798
28.952252
-20.867818
-8.2421146
111.64226
-537.59058
-1092.6794
-2807.461
-1152.0859
-62.928103
5652.745
467.33113
-46.820883
-160.99963
-58.060537
90.524258
-291.97423
-0.16625983
-143.32891
96.72664
-62.921222
123.77425
-14.084214
-125.44006
6.5273789
26.988389
-21.832088
-5.5210711
119.27765
-121.27108
118.00562
40.222395
-94.90586
-21.884836
79.833908
-124.08501
50.89857
8.2493849
-42.152662
-3.7195246
110.80958
-123.02084
2.8511671
23.181336
-18.476264
-2.4270857
117.89241
-60.28466
-30.087486
49.944048
54.180916
-13.753025
86.284514
28.600317
-38.543479
-47.10063
-65.831852
36.591333
21.15551
-79.586056
61.809971
-55.540151
70.37232
-18.21118
-91.939122
10.108632
32.708407
-23.596698
-12.44036
85.159816
26.444351
-1250.9904
-1999.6731
-1274.2907
-14.672334
4513.1822
284.57322
-46.965006
-18.388562
-54.952555
18.626506
-182.89348
3.1158782
-78.409038
77.11777
-56.02437
69.24125
-15.041157
-98.062893
8.3607842
29.09953
-23.807075
-6.6833495
91.093499
-28.401365
4.4752254
-17.598482
-22.909637
37.356019
27.078455
-74.914875
38.405532
4.8212372
-36.267951
1.0712071
66.885155
-98.194966
0.54717273
25.353452
-20.054918
0.91693592
91.43262
-36.068451
-37.570755
50.706174
31.728673
-8.7957445
133.13039
-1.4236084
-30.797294
-15.868755
-114.78057
29.740133
32.494449
-51.204467
42.706379
-40.948209
46.465961
-29.513658
-66.622631
14.298558
26.56257
-18.817426
-16.504287
61.084097
-2.6098234
-1232.4387
-1808.3445
-1262.1151
0.46253028
4305.0456
192.688
-35.347734
-24.250606
-49.525323
24.299509
-107.86369
9.8745575
-52.714397
39.216387
-30.738734
48.708473
-14.345914
-72.384185
10.218851
19.543941
-16.55191
-7.6731288
66.846829
-28.336184
-35.376959
-63.903721
16.808282
82.734624
28.074219
-50.82674
16.168541
-2.9620711
-18.385706
9.11577
46.890574
-73.328887
-0.8784403
16.903329
-13.531523
2.9999037
67.836156
-22.927783
-35.929608
38.149954
20.8465
-0.138868
162.74578
-15.748455
-21.661175
0.31643428
-145.28046
19.628236
40.962537
-34.551934
31.021138
-30.648959
31.104147
-37.886335
-46.730719
16.983417
20.101752
-13.614914
-19.240489
42.501461
-3.1933225
-1227.1841
-1704.5518
-1265.687
0.87289388
4199.7433
149.98601
-30.114333
-21.87704
-46.283233
20.236681
-71.947908
14.443987
-38.856718
15.279584
-12.710535
35.759602
-13.915489
-52.356638
11.646915
9.9491409
-8.7791486
-8.5069018
48.047143
-24.880191
-43.929653
-89.237959
34.60253
100.16738
23.278281
-37.156694
1.7903757
-8.7077526
-5.4261149
15.25858
34.242137
-53.553134
-1.3464803
7.9441439
-6.4206593
4.1010779
49.275596
-15.898225
-35.760154
31.875923
14.430893
5.3520185
168.72241
-11.945932
-12.880909
11.685571
-166.5123
10.931641
48.155457
-21.913928
23.096318
-23.804676
19.083452
-44.615833
-31.540452
18.953155
15.507375
-9.8548494
-21.341786
28.27743
-2.6797223
-1227.4053
-1638.4275
-1268.8133
1.0994365
4136.2264
118.16642
-28.401479
-16.14506
-43.216439
14.806578
-45.209784
17.451907
-27.654654
-2.39593
0.80241796
25.120708
-13.323856
-36.804673
12.787306
2.3851653
-2.6176915
-9.2170642
33.467888
-17.306228
-46.24243
-104.96737
47.102166
105.56697
15.847458
-26.408615
-9.0502779
-13.090157
4.3183784
20.162196
24.06933
-38.286546
-1.6533248
1.1335057
-0.83946316
4.6527719
34.994005
-10.643875
-37.083781
28.510993
9.5215823
9.6962292
168.93354
-13.494276
-5.4959052
20.95107
-175.86329
4.9694336
53.994801
-11.408255
15.986287
-18.226474
9.1992217
-49.54443
-19.77127
21.055726
12.18081
-7.1537265
-23.56906
17.258691
-2.5827827
-1227.4622
-1595.812
-1270.1276
1.3582575
4094.6264
96.501751
-27.361103
-11.598655
-41.828765
10.404528
-26.117479
19.398814
-18.691345
-16.698766
11.889637
16.731904
-12.629344
-24.829121
13.923083
-3.789633
2.3496346
-9.9270067
22.27457
-10.615568
-48.3379
-112.89731
55.770563
106.30097
9.7798217
-17.874826
-18.585819
-16.916852
12.514686
24.831504
16.032452
-26.544755
-1.893831
-4.350624
3.6276057
5.1598786
24.003193
-6.4003816
-39.743042
27.030536
5.4244172
13.689581
158.81637
-11.768007
-1.0735892
28.202827
-174.61188
0.4349314
58.981671
-4.0226129
8.3080545
-12.89609
2.9481262
-53.317441
-10.892047
24.847397
10.327834
-5.7624932
-27.615357
9.0968878
-2.2717276
-1223.611
-1571.1843
-1269.2537
0.89532889
4065.4255
83.181635
-27.322359
-7.5365445
-41.504689
6.3535815
-13.171318
20.763557
-11.825986
-28.654428
21.511505
10.233367
-12.026834
-15.611395
16.082466
-9.1864856
6.5580126
-11.383765
13.543466
-5.7356795
-53.304375
-115.07244
64.090336
105.02429
4.9985124
-11.017169
-28.02112
-20.210933
20.166115
29.564909
9.5197658
-17.29176
-1.983883
-9.1844189
7.5406027
5.7824155
15.140031
-2.4918571
-43.062506
26.111284
1.6431758
17.801726
160.42461
-20.08733
1.2985626
38.502807
-179.2408
-0.8970286
71.972129
-1.8991775
3.2201896
-12.070371
1.4965679
-62.716842
-4.2793909
41.757832
16.069154
-11.310069
-44.65563
2.4250824
0.32168327
-1216.8081
-1554.5999
-1263.3601
-2.8734386
4037.3199
72.283884
-26.381168
-2.5260383
-41.802954
0.85508917
-2.4284786
23.968604
-5.143067
-40.502543
31.569073
2.6005083
-12.491113
-6.9636185
24.219446
-14.966352
10.59447
-16.809775
3.9296236
-1.2945807
-61.124961
-117.73791
74.746395
104.49244
0.91937778
-4.9545404
-38.839193
-24.877102
28.563689
37.379998
2.7294639
-8.0658803
-1.8370985
-14.588739
11.90515
7.9213975
4.6700484
0.01606874
-53.581231
27.679859
-0.12080749
26.009568
162.14093
-17.10839
-0.12430478
35.577784
-180.2887
-0.19669006
66.341417
1.9480363
4.0708584
-11.231528
-2.3081598
-58.818726
4.1810537
33.030151
12.174133
-7.5106911
-36.099922
-5.7712143
-1.0760741
-1222.4026
-1559.7197
-1263.8093
-0.98633794
4047.994
74.497751
-27.582908
3.4874874
-41.03804
-4.8327455
-4.531299
22.713549
5.8879301
-37.477849
28.934524
-7.8245786
-12.232577
6.8906766
20.423196
-13.500866
9.7435359
-14.379376
-9.1744146
2.8113243
-58.13616
-116.2298
70.963445
103.83809
-3.2462458
5.7539809
-35.921667
-22.901841
26.543849
33.905227
-7.3774645
8.0946878
-1.5759137
-13.371681
11.045086
6.3724915
-10.560477
0.40568667
-46.987316
25.206004
-0.86699372
22.244783
169.14187
-16.307352
4.2353498
27.172422
-179.80099
-4.4409671
58.659399
5.9976923
9.1643789
-12.830611
-8.0043668
-52.985396
10.715167
23.09581
8.7904297
-4.3591459
-25.681911
-12.558091
0.1405418
-1228.612
-1578.8259
-1266.2289
-0.84812619
4074.3745
85.840712
-28.094183
7.9779556
-40.79784
-9.4755761
-15.45093
20.52881
12.720902
-27.656608
21.012633
-14.536106
-12.069074
14.82811
15.094936
-9.731427
7.314037
-10.837678
-16.66635
7.5785933
-50.396101
-114.00571
61.148567
104.42975
-8.7547288
11.998877
-27.158879
-19.375247
20.051307
28.252344
-13.767307
16.564342
-1.2688338
-10.223201
8.5639507
4.8394502
-18.472373
3.1546736
-40.576915
24.442829
-4.1406058
17.117878
168.98735
-15.888524
11.608173
22.8647
-175.30584
-12.265622
52.553667
14.717183
11.975324
-13.91894
-17.126491
-48.199878
18.41223
19.227308
7.8864256
-3.5639039
-21.470819
-20.490025
13.873776
-1225.2966
-1566.2012
-1264.0026
-5.9415177
4047.5681
91.147629
-26.747357
15.11621
-41.412349
-15.511603
-22.592403
19.242488
20.139893
-19.675268
14.809166
-21.996415
-12.519605
22.167354
13.141968
-7.303981
5.8335953
-9.7961311
-24.042741
15.365298
-51.027242
-113.48472
57.28211
107.9319
-16.067263
19.599983
-20.940463
-16.239418
15.327299
23.956251
-21.703169
24.375221
-0.16240459
-8.5443612
7.4392988
3.3460885
-26.451661
7.8877001
-36.989988
24.166343
-9.2955056
14.228054
167.63379
-22.626709
19.164585
16.501264
-159.77013
-20.902176
44.370897
26.157236
14.499403
-14.10116
-30.166528
-40.759512
26.891723
14.973884
4.754468
-0.71410234
-16.802695
-29.103316
-10.21812
-1222.7707
-1645.3446
-1263.6513
2.2365822
4139.7482
120.08777
-28.41401
15.376794
-43.971717
-17.156504
-45.922335
16.741822
28.479283
-8.1987051
7.7703384
-31.466329
-13.326568
29.407976
11.63838
-7.4705495
7.2292343
-9.7203092
-31.084237
21.274742
-50.695319
-102.0917
50.252852
104.48564
-23.226088
29.135163
-15.295817
-10.534205
11.889926
17.249752
-32.444263
33.065078
2.7490729
-9.7696782
9.505485
-0.11438884
-35.434189
14.482312
-30.437087
21.740033
-16.661012
10.87388
141.12852
-5.1598078
37.482699
0.37288134
-129.13744
-44.686752
32.995434
47.694806
12.558013
-7.3217381
-56.425551
-29.500897
35.225388
6.8152087
-10.345443
12.872234
-7.676428
-36.891291
1.1080552
-1229.7427
-1742.4836
-1259.9418
-1.1798742
4232.24
165.72584
-34.510191
23.018991
-47.191382
-24.734412
-82.308885
12.669789
44.455642
3.2679659
5.0035112
-51.162322
-14.235119
34.485513
9.9852905
-19.843522
21.52981
-11.496315
-34.660239
33.87027
-40.290144
-74.034664
33.818524
84.098918
-37.462564
46.5566
-11.944369
-1.5031369
13.300849
7.3012039
-53.710247
43.11397
11.042607
-22.534975
23.300657
-9.0455849
-45.875612
25.876568
-19.831805
16.860139
-30.409954
7.5033156
98.770482
37.553115
82.736559
-28.416008
-80.375528
-110.26918
21.282157
100.47737
-15.064666
34.617051
-126.61137
-14.700518
39.347645
-14.631213
-78.856702
73.884476
18.985583
-38.733095
-20.596709
-1216.0117
-1953.2241
-1253.0505
35.85584
4407.0272
268.26729
-47.936529
35.448379
-51.05968
-49.26746
-155.45165
8.4589617
88.145287
-1.7711347
31.135372
-110.68011
-15.287594
28.410871
10.219897
-93.87491
98.543808
-23.737288
-19.561587
61.180655
5.1108863
-27.000978
-1.3443097
43.89407
-81.839781
90.500857
-25.170927
10.45213
41.503739
-3.9073444
-113.37821
56.569493
35.756454
-82.11548
81.236687
-31.154184
-60.294768
50.181775
-0.039085859
2.8583896
-59.272022
6.2669601
79.321227
17.980581
251.41953
8.1445496
-57.402791
-299.46237
23.699176
-110.66177
246.53828
164.82734
-270.70362
-53.698268
31.545714
-161.10724
-273.05603
287.91744
162.18842
-47.481425
-911.14416
187.03232
-2604.7177
-915.98966
-1328.9524
5573.7717
438.82242
-79.080892
198.85889
-23.168229
-318.43918
-216.99025
-5.4715024
-122.33379
265.18722
194.59298
-11.286123
-320.68339
23.432056
-67.789887
-389.41271
395.34147
-95.637838
134.06933
208.13011
2.2149717
6.9255848
15.648369
45.086379
-278.00437
-96.058226
218.82149
-9.0316126
138.58334
-9.0323522
-243.28022
131.38111
-262.92836
95.557561
260.04758
-102.57277
-121.48671
-2.2897778
91.08758
-47.44791
-99.995825
58.646772
40.559698
-244.17906
406.06685
271.17069
-33.191166
-440.42681
10.476755
-57.495634
131.41174
66.541141
-142.95481
-7.9803368
734.72105
-1071.735
-335.96037
1352.9943
775.98204
-1456.0095
302.38376
-238.67727
-1272.245
956.29658
-233.85531
486.09738
-71.663258
-8.3007227
85.423052
9.9212769
-66.35499
50.974651
-20.268681
-218.10326
580.96463
256.87586
43.925373
-643.39626
102.62483
55.002546
-442.54678
798.42263
-139.95777
-373.54652
342.64045
53.410866
-270.98604
239.33526
-15.032515
-349.36576
-48.271892
95.253957
1.5437173
55.01909
-5.4839916
-98.062543
167.59014
-541.78175
446.76602
816.50271
-189.65549
-699.42122
-24.980242
-60.637928
124.16292
9.8276433
-16.087136
8.6657235
-111.92836
-70.157135
-78.660757
219.80027
535.25116
-57.900492
-431.78822
161.02347
-461.63406
68.788646
60.479716
55.471504
70.311412
306.76099
327.78139
-439.51191
257.04308
-452.07359
1162.3184
753.29977
290.42194
-94.343265
-1845.8535
-265.84377
-128.69995
-292.68
1315.014
-893.63404
113.72678
-23.431102
-213.34621
160.16653
-21.199184
-29.214858
-27.269057
12.376398
14.648392
15.35256
19.161732
-9.9113584
0.086280685
0.628975
-11.773513
277.25978
-166.61225
-30.479763
-214.27738
187.54619
-53.435733
230.92601
-2638.4901
992.89777
1216.4315
198.23372
118.45111
115.72229
-591.94404
-18.033238
43.423422
82.530027
89.845684
82.204755
77.800475
59.04481
-1.1562154
127.66014
24.284841
-190.3274
-19.506059
-716.32001
111.28949
1237.5438
-294.70639
62.770835
-400.57849
194.6397
-99.326984
-218.11605
258.65647
-129.8747
-2.4873017
-8.2192255
-1.7141911
6.4432579
199.25768
1400.3265
-2099.8046
660.73747
-160.51678
-312.72654
197.2062
487.48382
-282.9246
-374.70254
285.6612
-193.40389
21.423487
-740.72608
-183.24406
76.347149
22.376633
77.452962
221.96928
193.82975
211.27044
191.56849
27.90274
25.587271
32.946888
14.699785
-111.02887
-172.3712
-205.64334
151.55566
253.321
84.168297
-176.75996
-107.74161
71.975022
58.003262
154.52306
-229.6222
-203.98099
556.80875
-344.86695
199.71031
4.8221574
8.1996483
3.4565289
5.4735951
67.700608
-169.24073
-89.416031
-15.746094
246.21335
-39.511322
-72.111329
-24.316692
501.1966
-368.12534
-105.86236
69.213692
-212.17594
87.447401
84.141885
376.11518
-131.54244
-58.524536
-60.343522
-44.179467
-40.939187
64.477269
1575.8871
-2311.3171
-70.744579
741.69743
-168.76205
71.70849
404.21535
-183.62904
-255.38003
131.84199
61.205814
408.29286
-442.3772
-134.3753
64.682666
47.126682
55.027179
112.75067
110.23912
96.644134
119.33616
-117.22183
-132.95287
-128.15572
-120.22539
62.469388
-194.56314
-504.9759
475.93848
275.69171
-114.56086
-54.423514
59.344123
-7.9019348
-41.758742
44.739113
-80.465387
366.19507
324.19919
-420.45479
-180.44722
-9.0260294
20.266591
-173.70139
-156.17296
39.795604
-26.630319
296.44228
-23.04797
161.85585
539.06223
-354.19186
14.101586
-86.569047
-82.005753
-87.074563
-82.129625
-151.31906
39.668546
206.73587
236.07724
-185.42392
-44.780674
-46.459441
-29.138297
-25.363334
-38.164464
1607.9927
-2364.9306
42.488663
752.61364
-67.012026
55.305134
354.60899
-120.90337
-272.61333
50.607196
-344.18408
587.97448
483.09762
1684.6424
-488.08895
-357.86532
-500.5128
-212.46346
-207.42086
-146.20703
-134.90232
-103.63325
-95.237597
-104.02385
-61.17897
160.71963
-158.75706
-1115.322
958.63646
287.56306
-132.84269
-4.2382656
174.86239
-65.908979
-107.34865
2.6322991
30.372537
1135.767
-1452.4754
-672.38165
911.80384
46.910892
9.52161
-89.789179
-156.39511
13.496656
-2.6441528
225.8099
-2.6823808
214.83174
534.78341
-416.25369
1.430528
-85.72158
-80.180885
-86.017271
-80.191079
-276.46257
-43.237055
128.59298
381.01247
-120.68918
-29.043249
-28.101462
-5.976358
-6.100482
-98.911454
1624.1073
-2367.6483
96.181356
746.27092
-42.664427
64.223226
321.51469
-77.563782
-307.63782
42.122788
-461.39354
-183.91528
550.3348
2326.75
-627.08997
-458.26933
-628.81653
-191.24204
-185.12496
-105.34249
-112.02379
-10.204707
15.348354
16.265676
54.718545
41.013189
-184.69996
-1677.0709
1419.7862
407.94186
-6.9768748
-10.975236
281.88687
-121.2538
-164.56207
14.901789
-29.146355
1559.696
-1881.8482
-931.72476
1291.5477
-8.5271879
-31.154327
-93.939484
-253.66252
115.50661
27.306442
235.94306
-4.8223539
267.47263
568.31218
-504.043
6.9453385
-86.002572
-80.681395
-85.994289
-81.187595
-580.80901
-148.26187
171.37239
741.05842
-215.42994
-6.6334857
-5.9826879
21.587789
23.092116
-130.17324
1632.7927
-2371.0988
121.99133
746.48776
-81.073817
81.721758
303.48751
-59.293499
-337.69777
92.851926
-515.69099
-141.91827
414.6235
2503.9261
-696.07263
-509.7651
-690.6614
-156.51073
-151.46195
-69.496023
-74.519043
-5.0904934
22.934503
15.890633
53.806552
-171.13689
-236.85568
-2065.4726
1710.3344
520.04921
243.07486
-67.326898
342.77382
-153.31105
-196.97656
74.837839
129.51743
1282.3276
-1836.2493
-786.84825
1350.8642
-139.61462
-48.418025
-104.55164
-304.30685
170.66007
42.46428
244.15203
-46.410805
313.88857
586.10919
-567.06337
55.822243
-87.344073
-83.473711
-88.356919
-83.172489
-647.47817
-176.21187
457.84045
872.93617
-562.54154
2.2888216
-0.19729358
22.579105
30.780619
-164.78124
1560.8041
-2309.8123
168.24759
745.54172
-131.17584
83.238745
275.79696
-55.309902
-306.50515
133.9535
-119.0424
-718.16397
-531.11189
754.49123
-121.84159
-82.564165
-101.10756
96.348437
103.58263
132.82708
96.53161
112.87987
135.52686
134.86639
106.77367
-303.42788
-293.96138
-1428.567
1271.8771
464.06179
290.01307
-107.88128
249.32872
-113.14167
-138.12718
109.81957
87.528684
502.1183
-94.012835
-391.13285
75.81177
-180.31531
-61.916277
-164.42118
-275.13578
151.6069
54.452905
295.41331
-136.91381
285.20522
549.94012
-524.72669
150.83294
-81.948268
-79.449963
-84.231547
-78.708585
-1068.1546
-292.11632
970.61751
1303.546
-1152.6556
50.334803
44.561617
62.560421
81.304103
-223.13584
1428.7146
-2202.4117
240.86324
755.96958
-139.94271
60.218335
221.70036
-33.295819
-239.79721
131.11635
2.511424
-9.5028994
-1093.2002
218.35498
44.632749
-0.07958847
38.862917
206.99076
207.8201
204.06427
200.47549
-10.220806
-9.0656198
9.4772383
-11.122995
-284.28839
-387.09724
-1250.3539
1163.6844
426.90301
331.14981
-127.18232
185.94003
-98.523282
-91.768216
131.53265
189.86433
-370.22631
739.76928
132.45728
-528.54003
-163.3263
-52.709804
-203.93241
-182.89845
63.304376
47.278474
328.95762
-228.44074
150.77722
432.60066
-339.66734
232.1362
-61.286258
-61.281426
-65.378552
-59.45989
-2093.15
-1116.8826
2064.0985
2082.7344
-2445.8885
379.43078
394.79278
364.47639
370.3872
143.04087
-948.32715
-396.58994
420.59208
781.28403
-229.06205
-207.18595
-132.40139
95.082008
-37.700362
511.26897
-1778.5756
-258.46679
162.09612
1496.9951
-170.77592
-301.85144
-213.62111
302.66376
305.33408
360.32334
368.42169
-110.30487
-84.987498
-23.393089
-53.859725
-879.4748
-626.22218
-1921.3926
1529.4086
1612.4931
285.18543
-212.59809
194.60227
-117.62395
-102.59418
238.21339
203.6455
-753.24796
798.38864
656.24356
-730.44372
-174.5874
-35.438597
-173.95878
60.436181
-107.72702
48.932407
207.75556
-185.47869
158.96926
55.915572
-283.1151
281.12175
-2.8617475
-8.9883708
-10.559571
-5.0045923
-3158.5782
2130.3253
-7823.6866
4915.3712
5861.4704
-562.89348
-422.82177
-363.15889
-576.02955
-2519.384
1495.9556
-1310.6971
-919.08833
2096.2148
1156.9987
-1121.1001
35.976553
2421.5792
-851.76543
132.08308
63.763316
154.00064
-441.44183
-371.55786
-369.71639
-451.90625
223.54544
172.60884
214.64545
189.2853
-2506.4071
1653.9394
-170.83942
-2242.0962
3276.9659
482.39144
773.22696
-503.60057
-763.5808
231.81578
-131.49432
-3000.833
348.79678
-1069.6453
3621.3558
52.513931
-266.71827
257.70722
-255.4464
240.96157
-29.019209
-2236.3302
3614.222
1278.4529
-1464.0528
2269.7275
-953.47828
-968.05612
-803.88835
-736.59761
383.77597
-177.60429
-249.88269
258.38383
176.20256
-390.87579
-84.760895
-647.41377
756.87346
133.42667
132.59086
132.31322
133.95226
-137.38534
-140.22043
-159.68744
-145.31509
11.419134
1.5457248
8.5509854
4.108498
-946.92695
888.5482
214.11763
-578.93506
483.31453
-60.119219
-33.055673
-146.52715
157.61496
77.611109
-70.30277
14.659063
413.11479
-167.32345
141.27407
-530.25781
45.512489
48.095462
48.083362
42.061052
51.843871
114.42056
-10.99477
-0.78111425
-52.818631
-101.67027
62.057205
-618.61903
-329.61462
678.63689
-9.2950231
59.196446
51.35985
58.330284
47.950329
121.59975
1.3577772
62.107864
-122.74538
642.73168
-3.5719628
728.30125
66.798239
-578.1542
-856.10589
-550.70385
-481.60768
254.11267
916.21326
315.3323
-453.34895
303.25165
105.35974
-285.88595
-75.724623
-291.17884
-255.8294
-348.02366
23.470569
515.16399
367.60236
7.114233
73.774555
77.386722
-5.3265599
-100.26904
-52.679825
377.40277
-311.4543
72.792183
321.03104
-450.33232
-9.4378525
-1543.12
11841.55
271.34379
-7637.8795
257.78202
-3189.6765
13.778927
30.823539
-49.687929
38.043702
-27.260026
-5.6975519
-104.66406
-505.09755
-47.202186
830.37254
-70.784584
-89.64237
851.59756
2297.3937
225.80965
-2122.8438
4465.8259
2786.2344
292.05127
1366.5745
756.37077
-9667.0587
79.018118
-98.376765
14.285525
-59.475797
-210.25599
-999.85742
1515.193
518.21119
-823.29058
263.86244
231.59167
9.2524481
-348.92808
-216.46708
13.951834
19.415428
15.055159
12.267178
-1520.1437
154.25515
-305.93141
32.696108
-21.880483
21.696264
-18.373492
-0.35889227
561.73149
-55.180976
11.111594
132.09076
-808.33992
38.886916
39.600792
38.830881
41.269013
620.35319
-765.76349
1088.3716
-992.44821
60.28494
42.825773
89.661983
24.304083
1384.8892
1450.1356
1861.7258
-218.53753
-1800.2621
560.66942
2463.7022
690.81793
-430.94261
-449.67206
-282.91309
-532.86259
92.540979
2.9124391
-43.11219
-4.5871596
-96.026875
217.53078
-252.64195
80.357956
-226.33182
181.08487
45.940404
90.647146
12.49558
-5.8710214
-41.719635
-101.49301
91.296685
-582.96558
239.7978
3.435681
97.814481
84.542323
95.429218
89.101228
12.269157
76.198444
-62.401253
89.371235
-6.5307061
-108.90682
-12.017693
14.083163
-34.997367
30.230259
2.7018948
-330.41063
3.388387
154.38905
172.63302
488.50155
49.610389
-437.27214
-63.543115
-579.07736
88.042598
-6.2798111
-120.13235
59.329881
165.5102
62.02961
-271.8402
-205.80122
250.10063
93.895627
87.41604
26.546127
-136.54388
-295.00559
-598.78407
430.08678
806.38134
-336.27946
-6.3968458
100.72925
298.8682
-730.00802
-276.08099
271.61834
119.11652
-429.63161
314.97814
-1516.3184
698.47386
-3473.9136
-251.70822
2024.082
1107.2699
-990.05375
-5133.4074
-1502.6739
2527.6029
656.34859
593.1567
235.34928
1498.6552
-3000.9146
1126.644
-1417.446
-710.28414
2503.3439
-509.22881
938.53415
-1049.2887
-95.369891
763.93403
-48.581374
402.79329
1465.9523
-1741.1574
1005.2466
-482.01398
-650.82099
45.382815
-372.09318
-236.21381
-34.582626
438.39902
159.10701
347.70748
-375.40912
28.3779
-242.40767
294.2443
-928.75742
-1195.0177
-288.78848
-392.43082
-299.04584
1598.8991
819.01559
1069.8998
-800.08121
-143.84466
-786.48035
1049.2344
-173.9734
192.48117
205.30461
233.90367
223.45341
1983.1258
162.56612
-1513.2743
111.51719
176.00771
193.86883
-396.3486
-265.27102
-347.05809
-325.94324
-144.16835
-44.020106
-113.80027
-97.60163
620.39654
24.271134
501.45618
-89.345386
83.767772
-525.09443
4.9349805
-44.073488
-86.633832
-111.0293
152.72663
42.538011
46.471471
3237.3162
1606.2656
-1423.1223
-545.5712
-1038.7629
-1568.0384
-1160.4297
-1343.9881
591.99016
-1425.2715
1132.9285
117.51279
-417.15999
-504.45956
-1674.7288
2797.8508
178.11501
-796.77814
256.72471
57.09872
97.062775
-13.891192
-317.674
104.66227
260.38967
-38.83113
52.50291
-63.16348
-315.55953
-110.70766
-57.955981
106.82893
150.67383
324.27616
293.81012
3.9379439
-125.76962
-118.67355
-129.62176
-35.978922
-226.10933
452.82706
231.92061
40.546243
146.15102
-290.25627
141.44521
263.39307
51.752509
-15.150689
-254.30964
-187.12895
4.6064423
-129.09064
-121.29687
-128.16143
5.8121356
348.53791
435.00257
662.75455
98.4637
-2.0584715
-564.56782
448.15043
244.94559
103.10252
68.003349
-72.661018
-325.40925
-178.67577
-720.88068
-544.00021
-106.8615
639.27394
112.95652
175.80888
-152.37621
-108.14451
212.89232
-241.13606
100.88506
177.74103
-192.62589
-83.153356
300.40555
-29.47298
508.61164
2345.4499
-582.90228
385.39545
214.16175
180.71102
-3277.7838
17.006176
308.22803
-69.076294
-73.612941
-70.037928
-66.398539
406.12745
24.426872
33.326469
27.00802
-112.16982
-126.65081
-105.25884
-119.14233
-83.928583
-394.93804
-61.241982
381.90401
181.6376
-379.76434
-827.14754
928.21411
675.15994
338.26142
-223.75575
-2043.4316
65.916781
515.09425
269.47088
-814.29064
2815.5356
-689.20246
197.33646
594.5106
-57.590288
-182.47726
7.2009766
-37.907111
-276.11878
-32.468226
339.29338
165.68073
-9.7269861
4.1551624
52.957728
18.656401
-231.72195
2958.3939
173.67544
-1913.4163
321.82598
322.38667
335.51964
-2466.5354
40.770885
-63.346281
24.436035
94.16403
-17.306546
1262.3786
149.68624
-1605.014
-26.777364
132.85311
115.30935
-232.18779
274.66593
-180.29489
-144.17444
-127.53885
298.09096
153.91884
55.630235
-275.47728
161.6454
262.79386
-73.208858
-1789.785
338.61202
-121.42557
-25.891344
2662.7308
-802.77839
-430.21694
3544.1571
-1313.9205
-843.65777
856.54402
998.03594
-3241.1534
-681.57141
-233.87623
526.37908
702.58619
306.83447
217.91598
-32.536701
-59.630629
14.005485
-235.81044
112.12497
-86.687224
-32.059826
-151.375
158.00027
71.685147
181.78369
45.113596
-45.755193
-43.181145
-209.64565
-171.80057
52.712743
175.1985
-22.234453
308.76526
226.92079
5.4946293
-186.27346
365.13202
-91.758507
-96.224996
-96.89196