/*--------------------------------*- C++ -*----------------------------------*\
  =========                 |
  \\      /  F ield         | OpenFOAM: The Open Source CFD Toolbox
   \\    /   O peration     | Website:  https://openfoam.org
    \\  /    A nd           | Version:  12
     \\/     M anipulation  |
\*---------------------------------------------------------------------------*/
FoamFile
{
    format      ascii;
    class       volVectorField;
    location    "2";
    object      U;
}
// * * * * * * * * * * * * * * * * * * * * * * * * * * * * * * * * * * * * * //

dimensions      [0 1 -1 0 0 0 0];

internalField   nonuniform List<vector> 
94133
(
(60.251637 -22.264493 -3.4085829)
(54.451022 -6.0611977 -1.0763093)
(-11.126457 -4.3348593 -4.6227115)
(-42.714229 -7.1458386 -0.73800185)
(-18.976581 1.3163176 10.851775)
(57.828977 15.686137 -2.9647257)
(35.802427 10.925168 -1.2542019)
(70.296771 -10.93884 -4.5062383)
(56.378217 -6.7320486 -0.15284272)
(46.679459 -0.93074977 -12.673312)
(28.540953 -0.24777716 -0.93897993)
(45.708141 0.96358406 10.018039)
(67.779284 7.4570946 -5.0640538)
(56.217741 5.8732807 -0.55012316)
(83.653177 -6.5169639 -12.075606)
(87.080262 -3.0501955 1.791375)
(84.877375 -0.40988685 -18.893965)
(89.356396 -0.39459534 0.63756053)
(69.954474 0.35684637 25.150369)
(88.924085 5.7643155 -11.621232)
(88.061496 2.8398009 1.5489327)
(73.693106 -10.709131 18.011151)
(108.96608 -11.312233 -25.510491)
(114.86255 -3.2476259 4.9522377)
(97.903426 9.7467293 38.485196)
(104.31424 -0.51025971 -34.529671)
(117.51294 0.078645694 2.4912389)
(101.96902 0.02461489 39.985186)
(108.55413 10.97696 -25.141818)
(114.77607 3.1167257 4.6797591)
(92.068921 -8.7409633 37.269459)
(147.84024 -24.175311 -49.156925)
(148.65336 -7.0542725 14.703221)
(129.05292 11.787474 70.435737)
(6.0127859 6.3323316 -76.093702)
(156.58132 -0.88154095 -66.375175)
(156.50772 0.14461599 7.3558925)
(126.1276 0.044485538 66.662458)
(151.30711 21.95634 -51.355319)
(150.18778 6.8654719 12.432049)
(120.90052 -10.151029 66.262766)
(236.86651 -55.802422 -86.137897)
(212.2898 -16.40216 41.986896)
(149.66438 18.137714 127.24311)
(51.952663 -0.37987976 -224.85829)
(259.23018 -1.4074847 -126.31821)
(229.76305 1.3002812 28.337657)
(160.10054 -0.25697844 126.97966)
(240.41064 58.186386 -89.317204)
(214.02177 14.400273 39.161303)
(150.14749 -18.893916 127.82109)
(437.02938 -139.13174 -114.36683)
(319.67897 -33.990749 124.3441)
(186.23311 31.213575 240.3588)
(356.57227 2.8022023 -488.36063)
(522.19504 -4.1926765 -208.30992)
(361.97954 -0.11763227 102.28238)
(206.84722 -0.0312572 244.64547)
(443.57828 147.24863 -123.81273)
(320.85501 31.788943 119.78203)
(196.59042 -14.708789 235.02832)
(774.35407 -279.05629 5.1780715)
(458.823 -54.072608 320.81519)
(237.70297 32.091446 422.32087)
(1363.1531 6.4045835 -909.36705)
(1047.9856 -14.153605 -171.12905)
(535.36136 -4.5561036 288.37328)
(253.73715 -1.3450852 447.09724)
(796.26862 269.25763 -19.208833)
(459.12301 54.627401 312.60727)
(233.33283 -21.55016 427.1845)
(1145.2262 -395.49565 509.44047)
(531.49049 -65.540248 685.12314)
(232.01967 24.544132 689.24575)
(2552.9121 23.973013 -825.59846)
(1487.4291 -29.61086 450.76556)
(634.25497 -1.6578173 677.17879)
(258.63357 -5.3216332 721.22911)
(1190.0458 367.71653 461.02523)
(543.85699 65.184045 659.97363)
(241.55013 -24.073638 676.21864)
(308.00274 -9.9143022 532.4783)
(953.63126 -222.58965 1388.5612)
(369.95138 -34.443732 1096.8274)
(159.54329 15.463085 942.35604)
(-6347.2277 -56.261508 2156.7967)
(564.77804 -49.975187 1684.5448)
(386.62933 -12.37563 1116.2717)
(171.19145 -13.693265 962.63424)
(1014.7241 165.44005 1297.8685)
(397.78173 17.1813 1068.2415)
(172.99506 -28.076093 922.14663)
(208.77782 29.514838 873.09583)
(-306.56868 188.7998 1584.0669)
(-10.343659 9.6799554 1210.1899)
(46.636925 -4.8090717 1036.4668)
(-46097.194 -438.76914 4558.0049)
(-3457.3236 -44.014326 1821.5013)
(-229.65302 -36.007036 1209.9372)
(38.392679 -20.856529 1050.9877)
(-157.90844 -290.17745 1443.0309)
(42.291162 -72.358493 1180.2293)
(66.947803 -29.014458 1020.6286)
(0.79749344 -46.480553 928.37071)
(-490.2188 276.91599 1004.4761)
(-183.19105 26.38846 976.27988)
(-17.54428 -28.061496 937.59238)
(-41311.396 -458.25608 737.51765)
(-3663.9675 -50.637241 972.40501)
(-459.95751 -50.487099 956.58332)
(-40.047104 -27.674148 949.94191)
(-296.63207 -390.82736 907.0464)
(-120.40751 -116.65705 960.15688)
(8.2605062 -20.175849 934.42694)
(-64.560903 -61.050721 742.05043)
(-396.35821 192.91147 661.59334)
(-190.02684 9.6947929 717.98421)
(-29.616889 -43.721042 747.73817)
(-39802.934 -468.63657 377.42766)
(-3335.704 -62.178469 621.76639)
(-440.95134 -56.968963 703.27909)
(-50.489972 -32.763329 761.34924)
(-171.81769 -308.04682 607.30059)
(-120.46048 -111.30532 714.62238)
(0.97164309 -13.166166 754.499)
(-49.88918 -45.18222 556.05348)
(-286.6827 97.868745 439.26426)
(-148.40264 -9.0619484 508.72545)
(-17.008901 -49.393599 553.98704)
(-39013.108 -482.25372 233.15841)
(-3092.8575 -69.399429 418.73773)
(-372.01886 -58.610151 503.29902)
(-31.737842 -35.531638 568.03739)
(-46.806137 -237.25953 412.51235)
(-72.391946 -97.207139 513.4252)
(16.777798 -11.727926 565.38408)
(-26.604326 -29.299886 402.25778)
(-214.12472 55.104719 284.3607)
(-103.22246 -24.384947 346.13704)
(-0.96387282 -50.51874 388.80283)
(-38528.772 -487.97371 152.30939)
(-2868.2815 -68.842987 281.37644)
(-300.86933 -58.902531 347.77761)
(-7.5405019 -37.394408 401.22891)
(49.650514 -193.50045 272.70256)
(-18.859965 -84.600844 355.19418)
(38.047323 -13.157481 401.62016)
(-3.5249898 -16.637542 280.47512)
(-174.89123 28.049677 170.09896)
(-64.675976 -35.58757 217.9297)
(14.308522 -51.441232 254.38763)
(-38205.8 -491.00548 96.793185)
(-2712.5723 -69.799907 180.00288)
(-240.07328 -58.065587 225.46142)
(13.988138 -39.032422 264.78897)
(109.03044 -181.34152 170.0096)
(26.458766 -74.086122 230.98471)
(56.621494 -15.153404 267.82333)
(10.918396 -6.66883 182.66561)
(-154.1098 43.784312 86.044348)
(-33.220729 -44.301989 115.72659)
(23.018865 -56.255854 143.83292)
(-37990.984 -494.43933 52.599341)
(-2595.3702 -71.006541 98.563533)
(-190.17822 -57.175979 125.54055)
(31.627735 -42.323952 151.42067)
(152.44481 -176.27071 90.177042)
(62.765713 -64.872305 128.97739)
(71.677345 -16.640296 156.10642)
(17.886302 1.6011641 97.21065)
(-147.0853 22.675785 18.830348)
(-15.747102 -65.128398 31.967816)
(13.622615 -85.501989 43.471968)
(-37839.845 -495.18566 8.3020075)
(-2511.9356 -72.160069 24.379796)
(-143.74403 -58.687954 33.704306)
(48.236608 -54.628682 45.367883)
(185.69588 -171.02123 21.14485)
(96.548134 -51.994818 36.010442)
(84.539677 -16.39869 49.374198)
(18.158879 11.408037 23.556142)
(-141.0163 29.061129 -42.794417)
(-18.358701 -55.987802 -57.553963)
(21.315825 -70.113408 -73.253354)
(-37895.384 -491.6986 -26.21515)
(-2532.1361 -70.572268 -51.455657)
(-156.29071 -57.940015 -63.617643)
(44.349358 -49.019943 -76.829236)
(174.23538 -174.33111 -45.91181)
(87.949718 -57.543179 -66.849807)
(82.960055 -17.946736 -81.742487)
(24.377899 7.8737612 -47.33976)
(-148.2179 22.690622 -120.12288)
(-35.219136 -42.973925 -147.21472)
(26.485435 -52.686846 -170.66982)
(-38081.619 -488.82781 -79.671754)
(-2630.1305 -69.285984 -129.92739)
(-196.02445 -57.284525 -154.98834)
(32.469128 -41.040737 -177.76411)
(138.1985 -179.37704 -121.08339)
(61.588755 -67.615365 -159.8982)
(74.1567 -18.543024 -182.48564)
(22.646663 0.99202925 -124.07946)
(-158.75437 28.568058 -213.59102)
(-54.208873 -32.1306 -253.23129)
(24.417453 -46.849061 -276.44252)
(-37879.108 -485.23936 -173.41445)
(-2709.8099 -70.976442 -217.78763)
(-233.76832 -57.99406 -255.70283)
(22.17204 -38.68554 -284.56006)
(109.45116 -181.37477 -209.52284)
(33.119565 -76.739653 -264.74279)
(66.093193 -19.97424 -288.97294)
(16.209316 -5.3316873 -215.18424)
(-202.03819 51.222372 -332.87002)
(-75.597869 -16.297785 -384.49761)
(26.782442 -39.609863 -394.51601)
(-38473.247 -487.71444 -117.6237)
(-2908.8522 -71.950223 -316.75807)
(-281.4582 -59.381165 -377.98246)
(18.036349 -38.172484 -401.41461)
(48.944885 -201.81751 -319.35749)
(4.6412216 -92.400428 -393.7153)
(65.793266 -26.403924 -408.0198)
(16.545571 -13.575069 -329.06789)
(-278.6749 130.04682 -553.44281)
(-68.328101 3.7846191 -565.64162)
(60.909442 -21.308909 -511.80975)
(-39341.335 -479.91929 -318.08145)
(-3131.4851 -70.648604 -509.80598)
(-303.28093 -60.555609 -546.69483)
(49.907481 -39.857201 -512.88542)
(-43.512051 -267.76034 -515.93759)
(4.5042297 -114.06532 -571.11026)
(98.453116 -47.702858 -530.14532)
(36.764862 -20.593471 -488.01174)
(-317.14628 162.81159 -943.22255)
(73.012947 11.462322 -819.99543)
(217.61 34.891885 -571.43934)
(-40818.456 -502.74481 -740.36882)
(-3410.6201 -72.181074 -911.72984)
(-189.34678 -63.542023 -798.0369)
(228.50783 -52.94268 -543.92036)
(-92.91174 -321.20663 -889.4151)
(131.29986 -126.84417 -816.99232)
(237.9815 -108.74705 -599.68816)
(110.50968 -13.221234 -716.72808)
(461.40975 -55.319342 -1497.9576)
(495.89999 16.8201 -1040.845)
(693.71191 305.24908 -487.51274)
(-36569.166 -571.43278 -7644.8902)
(-1875.8156 -120.71519 -1918.5667)
(386.60153 -68.826943 -1097.3903)
(832.0077 -106.57414 -195.65585)
(674.48474 -87.683235 -1438.736)
(542.6623 -138.32487 -1017.5243)
(599.29934 -326.40502 -603.10326)
(352.94823 56.819852 -967.28885)
(1180.1943 -247.84616 -1098.9475)
(679.31176 -62.12262 -1093.1237)
(2493.8476 1095.2763 -2130.895)
(-4110.025 -2035.3083 -429.15547)
(1141.8999 -109.02711 -850.91833)
(901.95606 -27.974894 -1307.8046)
(4233.4837 -1036.3179 -1684.2523)
(1079.6268 92.975244 -1093.4356)
(649.7943 -7.2037119 -886.64538)
(1484.4699 -422.12781 -1209.6159)
(657.70653 517.03029 -1591.6606)
(1435.2156 30.604387 -644.35194)
(-3537.7696 597.79984 -6196.7406)
(-87.233368 -2180.9644 -795.93625)
(-217421.74 10458.838 7031.3254)
(440.35945 -52.509784 69.072941)
(423.98241 218.04437 -174.44163)
(-3442.0692 11019.541 141.36949)
(2135.0001 -60.74399 237.80855)
(274.70585 -1612.8033 -483.26097)
(334.46907 612.35847 -867.27435)
(737.42932 273.30707 243.96653)
(-73627.378 -3527.9217 -6413.0527)
(-160.5957 -1234.8283 1231.3919)
(-200.06567 1504.797 898.6866)
(849.05153 346.82999 593.61753)
(-52.379067 394.15926 1071.9756)
(807.40175 -830.65921 1130.9495)
(-12124.52 -893.49071 -381.55922)
(-1.8985582 554.56422 897.84961)
(-6.1877005 561.81372 609.44576)
(-89649.624 -16351.35 -3737.815)
(175.89002 -1113.143 662.67281)
(-751.24508 1149.2612 -56.844163)
(1235.2928 429.9599 303.56697)
(240.75399 -403.71281 450.46997)
(-437.72642 -638.04112 668.71612)
(-17824.651 5713.413 -976.2008)
(143.22673 418.74767 467.55053)
(-240.02916 488.7712 178.99065)
(-93577.256 -22125.85 2806.1207)
(383.91261 -1063.3913 317.36006)
(2666.1077 -1245.6611 -527.96395)
(1944.6483 410.75545 41.320648)
(456.87417 -979.67858 139.25287)
(-1197.3754 1536.0215 330.66565)
(-23911.845 9737.5117 -7.3131111)
(270.22783 296.23017 220.77393)
(-136.99974 649.26344 -14.790236)
(-95568.715 -24796.261 6140.6849)
(523.03534 -1066.7741 163.77004)
(3686.3653 -1318.4853 265.26525)
(2595.4055 546.10239 76.50642)
(679.32341 -1550.3217 117.46704)
(-1763.5525 2151.136 139.32419)
(-27313.769 12749.444 1159.7121)
(302.2957 150.22734 94.02961)
(72.904251 1117.5062 -331.70602)
(-96191.416 -24940.966 7864.9152)
(560.96405 -1099.3913 125.36669)
(4167.485 -1075.0737 73.160052)
(3007.5872 704.60744 307.5865)
(814.86562 -1896.2778 340.75611)
(-1414.2562 2095.6596 -243.35355)
(-29026.406 13881.392 2101.9782)
(283.0261 50.508034 48.44138)
(91.524573 1310.3645 -1013.5051)
(-93996.947 -21702.892 10300.678)
(456.01734 -1096.8361 32.467735)
(409.12741 1035.0754 850.69312)
(2320.8273 687.75952 274.58864)
(607.97145 -1322.3773 444.68638)
(-557.19886 -94.648867 -406.70659)
(-25383.324 11138.946 2759.8642)
(206.19327 124.6371 18.396571)
(438.14161 1920.5758 -2143.0894)
(-88954.544 -13573.79 13971.407)
(338.71782 -963.66455 -306.29458)
(-582.62269 2073.016 -444.35896)
(2158.3364 731.47104 138.59258)
(505.48599 -933.22204 445.70965)
(543.44669 -1204.8978 -672.05015)
(-19246.235 5350.833 2611.0859)
(158.06989 297.08686 -240.15074)
(2911.9191 3156.6004 -3857.3957)
(-12036.957 -935.58353 52416.764)
(567.41819 -0.41950588 273.67367)
(2780.416 2862.0832 -1202.449)
(3105.893 859.13119 1650.647)
(532.51867 -955.14291 962.86181)
(1521.0326 -1301.8979 -833.59455)
(-2297.3064 85.197477 14306.792)
(254.30974 -382.02267 -166.16472)
(7461.234 10075.059 -3016.4351)
(10913.216 -5490.3707 11911.287)
(-4880.2693 -1826.3273 1930.7331)
(12818.845 1702.9164 378.12624)
(450.91126 -453.2981 6106.28)
(-146.24009 -1725.4388 1503.0646)
(5050.7949 -4292.8144 -4625.3262)
(1783.1663 -3134.4708 1335.5904)
(422.77169 -1410.0044 960.36835)
(6284.9588 -1073.0096 -7014.7282)
(2364.2738 -211.53552 551.32407)
(788.90217 -362.09154 -1254.86)
(672.26504 -78.043708 -810.33744)
(916.57154 -164.76686 -966.4522)
(647.36744 -66.495635 -1016.5259)
(1385.7859 173.59306 -1631.6195)
(1293.132 -466.22972 -935.2194)
(1113.5362 -510.95629 -835.15704)
(-206.62469 -1607.675 -62.716725)
(1315.7706 -74.299028 -534.97128)
(1422.5856 -500.65009 -489.15188)
(-288421.31 -100855.16 296888.74)
(694.98945 158.48327 -98.10834)
(4903.666 -234.05676 -971.71134)
(724.51619 -2487.5231 -2743.2068)
(-36142.077 9228.1694 -2506.7168)
(1462.3803 -92.93615 -760.0583)
(-23636.794 16534.714 7919.9513)
(294.62991 1317.6289 -551.49974)
(-98529.535 -9423.7292 7366.4085)
(729.38702 -7.5306203 175.33422)
(2872.1496 356.65456 107.66517)
(1926.1553 -453.50404 -1443.7359)
(-5065.1531 17380.968 -3246.4841)
(1158.9424 1668.3788 -3056.6539)
(648.04932 128.87287 -765.17089)
(445.86644 528.54816 -1105.6254)
(614.98383 -63.658866 -980.62193)
(2184.5325 -0.064448882 -176.99271)
(274.84444 -838.35905 -606.63795)
(508.85519 257.36114 -304.76191)
(-506.84185 117.70183 -1016.7932)
(1215.6028 -180.93882 -1164.2126)
(641.28211 -224.41689 -1101.3535)
(869.71054 -14.368794 -1247.7592)
(301.04081 -1241.1718 -683.58594)
(1179.2914 20.784828 -1049.9621)
(-5248.7955 495.68741 -2142.8584)
(1676.5277 -139.31619 -1049.0781)
(19336.146 -1589.145 12684.989)
(-1781.9103 6844.9991 2653.3779)
(1828.7593 3158.5392 4238.8727)
(8166.1553 -1151.2374 -5044.858)
(-43667.519 1624.806 -8920.8052)
(-3660.5591 872.84619 1165.9218)
(-11.9017 -2107.6693 1850.3333)
(1585.714 -3211.6791 1953.4584)
(378.76019 -1600.1777 1336.0585)
(-4204.4396 -1092.6363 1575.41)
(-664.87968 -3859.1469 440.83503)
(-169.93006 -1501.7795 815.11141)
(4578.8934 -3822.0622 -7016.9522)
(-26405.58 8032.9031 1214.8578)
(-6863.6246 -26875.385 7279.9579)
(411.11112 -184.06731 -1473.6792)
(441.9228 -45.882358 -1134.9227)
(576.66672 -350.48256 -1229.693)
(855.02496 -67.007961 -1196.54)
(478.20627 -14.337684 -1044.3808)
(629.687 182.09573 -725.53685)
(843.41032 -10.882287 -1197.2243)
(1314.9011 329.53837 -1298.122)
(345.51665 -132.32362 -1630.4346)
(-12628.419 4209.0687 -4312.245)
(-1504.9404 508.3183 -1874.7232)
(323.17139 -518.66844 -1029.4291)
(-6326.7836 1565.9799 5258.3998)
(1109.6863 72.156733 -1284.1499)
(828.02922 25.631516 -170.93473)
(1930.2729 1038.0563 -1228.956)
(4174.2866 415.55566 957.74679)
(-4178.9546 -135.09498 -1938.7108)
(-7023.6602 -954.10507 -933.28575)
(611.79037 -449.77909 -1765.8703)
(-42546.356 3838.4084 11121.263)
(-118.67644 3.2514455 -994.17562)
(-23276.019 7620.9814 3255.5423)
(-510.71114 354.56264 -1169.5986)
(762.72391 -330.50148 1481.4675)
(649.44432 -327.6279 -527.19243)
(3989.6941 -883.98372 241.91362)
(-8076.8371 -6252.766 16630.018)
(1468.8547 -693.25764 -1024.8884)
(566.26793 -139.22831 -1133.3504)
(235.17045 196.21463 -1158.422)
(475.9212 0.98617287 -1075.078)
(749.35929 51.128655 -1209.8034)
(870.24813 -75.638951 -1118.9234)
(160.98 291.85693 -1206.7501)
(816.57919 51.455702 -1255.7088)
(588.74482 -244.43208 -715.21365)
(486.83992 -137.83289 -1038.2228)
(398.27023 -108.86559 -744.7133)
(814.02092 -44.628645 -1089.0279)
(1073.9127 -297.10717 -1040.2761)
(818.28862 -248.03246 -1273.8805)
(801.04043 6.7625962 -1127.7462)
(663.26356 -77.847061 -879.77311)
(1483.7465 53.761572 -935.96771)
(972.54791 -18.338456 -1198.8825)
(1353.2798 8.3295256 -865.11875)
(-578.52534 490.10593 -2041.801)
(1041.61 204.86927 -323.03346)
(838.42477 262.27493 -672.94161)
(1816.3275 177.47405 -1962.3195)
(938.11679 -56.860399 -1364.3469)
(3076.5593 -198.25432 -1356.8719)
(-307.12644 1186.2509 -2805.4339)
(834.05992 -1310.0504 -1442.8449)
(453.65195 207.10352 -798.51453)
(-12381.182 2177.0584 -2016.2768)
(941.33942 -51.960408 -1150.084)
(1061.9167 -57.649114 -1011.3022)
(990.85656 -140.42062 -1069.8539)
(1066.6295 -213.98176 -71.162784)
(822.17531 99.530682 -545.85644)
(2272.4447 -269.2547 -62.968484)
(979.88558 -593.47142 -478.00246)
(2622.186 -485.21068 -1491.3435)
(957.70096 -62.928724 -1122.3075)
(1409.444 -99.469528 -1351.7913)
(481.9983 197.15609 -689.79303)
(-4770.9565 5861.8621 -2069.3893)
(893.96332 -736.50792 -502.28928)
(885.16871 738.07734 -1583.8954)
(12183.277 25022.515 -111875.24)
(-33400.269 -9584.536 71855.236)
(2110.5602 -570.01176 -2122.9354)
(2545.4284 -3529.0521 -16652.062)
(2968.3247 -3693.6525 -2168.7111)
(-794101.27 -215218.52 1327319.8)
(3952.3797 3004.6298 -4464.2952)
(1028.6865 -289.88413 -1034.1446)
(978.99101 -59.721213 -1209.8848)
(639.98415 -76.533698 -847.40189)
(667.69443 -410.5101 -866.66966)
(546.47723 -107.38142 -734.51638)
(931.36877 -130.89917 -854.37459)
(447.581 55.095843 -952.32612)
(-1137.5489 421.38095 -1167.5477)
(1026.6942 -141.86334 -766.24822)
(616.22786 -43.994372 -79.720787)
(643.32588 -480.30109 159.60476)
(-8398.0951 -439.5263 1091.5352)
(1639.841 -548.34694 -294.10047)
(-644864.1 -300147.99 888409.05)
(-1754.7122 290.63276 -289.82826)
(1131.8497 -290.87116 247.91414)
(-156757.81 16233.124 269.37672)
(-153.17895 1263.3029 507.41674)
(-18858.949 5734.0859 2389.7795)
(-274.9342 -1241.0453 1277.7621)
(-638.34067 207.09348 1150.021)
(-984.54789 -41.564367 208.80681)
(3396.8389 210.46579 306.62274)
(14.560636 1622.2327 1363.5393)
(1106.7487 -1398.4538 1812.0922)
(-400.69646 2000.4528 -1275.384)
(-134.37474 599.2387 1186.9453)
(-351.18144 554.63273 910.85333)
(113.47884 -1000.3852 -374.6917)
(550.76734 245.60868 -256.91045)
(1171.9931 -680.37117 1058.3073)
(2280.0824 -1037.8743 -276.96063)
(484.93945 157.87707 433.31739)
(741.39211 44.640191 -178.28059)
(1156.8788 -189.4353 -1177.7327)
(-10531.953 -3409.1528 986.4149)
(180.17604 835.85789 1067.6646)
(2236.081 -960.80563 -289.04968)
(7180.0891 4962.8127 -3119.2147)
(-298394.22 -3990.3043 -13883.409)
(-4543.9732 1929.802 -763.83876)
(-88368.805 19209.467 -5919.1557)
(-177723.86 128541.19 -157737.89)
(2364.7858 -8789.9657 -6839.4262)
(-52797.502 11500.598 -4632.4729)
(-307.04653 1396.4996 4991.5699)
(2959.4794 -8759.4832 -928.58833)
(1641.3061 -4073.9459 2037.3002)
(-10160.012 32670.004 -9760.7593)
(-6180.8853 222.69102 1987.6111)
(-149511.17 -134948.1 5805.1192)
(-790.78806 -1834.5591 774.974)
(714.01061 -1332.8789 789.40993)
(545.13065 -954.41013 928.69739)
(8006.7786 -861.11631 -3686.0549)
(-21134.605 12515.045 -13383.63)
(-5651.0385 -21008.536 1082.7556)
(-10273.732 -26361.357 4105.0569)
(-981.31267 -6150.1371 -33.954989)
(-9452.6507 389.2016 964.42106)
(597.78037 -134.75224 -1221.1699)
(645.55899 36.916085 -945.46957)
(649.47173 -136.44312 -1051.9805)
(707.99351 -44.979938 -1087.9078)
(705.65964 520.8028 -1355.0311)
(785.78212 205.12594 -1201.8189)
(616.19321 -135.55336 -1220.6648)
(389.72036 354.8066 -1220.3619)
(688.05637 345.3246 -1436.5919)
(648.33256 220.53474 -1211.2175)
(372.11622 -254.21351 -1558.3121)
(1059.7355 -25.334579 -1129.7474)
(684.5391 23.043206 -1092.4452)
(558.4253 3.3830331 -805.34222)
(1032.2461 -11.831486 -1402.0448)
(717.46745 545.71226 -1592.9611)
(960.54724 29.301681 -1100.8725)
(1008.5526 -87.672681 -1200.3551)
(3695.2014 1170.4716 -2313.8446)
(697.66465 355.72717 -1959.6412)
(887.4651 184.42137 -1327.8804)
(730.36719 -674.87015 -2262.0618)
(1853.7015 -908.993 132.21263)
(2118.4995 -299.23378 -761.72721)
(2466.0781 -427.40951 -355.05655)
(1224.8578 53.358848 -150.23649)
(2331.6123 -554.7578 -680.44188)
(1278.3725 -57.0488 -343.9612)
(2343.4686 -820.22304 943.68486)
(1523.4676 -527.62584 205.43901)
(928.4548 93.347414 -92.103259)
(1245.873 248.0864 -325.65952)
(-5609.6394 974.96107 -2755.8103)
(1131.7276 140.15067 -300.46506)
(1052.492 -266.46165 1140.1535)
(1814.7088 -326.38331 -710.36786)
(-1804.6152 9864.787 27259.684)
(3773.0203 1131.4045 -1830.3953)
(-20545.83 -2804.9244 60745.915)
(-25787.575 -16148.461 89144.293)
(-20.151712 9409.9443 15804.414)
(3460.7154 -2527.3322 -5947.909)
(-506987.07 -139768.37 967849.6)
(-12887.752 8301.4168 46425.467)
(-130486.3 -41425.437 311446.91)
(-3866.899 -7316.1028 -2703.4927)
(-713352.16 482349.7 1716724.9)
(3169.2848 -4126.1071 -6998.0502)
(-805626.49 -359881.39 1642303)
(4114.4203 -22790.64 -11493.82)
(1648.5551 146.01755 144.69771)
(1881.7198 -216.03626 -770.30072)
(1136.2793 -150.43035 -782.97457)
(1030.6742 -92.186553 -134.43921)
(-1089.8536 395.24499 -536.5737)
(1503.2028 -516.72645 -312.94887)
(1531.3259 8.5814277 320.52905)
(801.33443 -62.050414 -107.06591)
(1105.7052 -616.74481 56.630201)
(1382.9839 -569.75219 -189.09412)
(-11057.513 680.50423 10076.562)
(-50425.84 21441.988 -26168.371)
(-1382.0262 8736.77 -17378.016)
(-7801.5251 126.4747 -3952.9153)
(-1704523.8 -470973.66 3579420.9)
(7172.1334 6261.9253 -7168.6076)
(-246177.92 -248546.48 1069755.5)
(844.1202 -170.00234 -1120.1444)
(861.87441 -139.73138 -909.22391)
(686.8095 -59.138908 -809.87055)
(693.27821 -240.3115 -844.14374)
(937.90255 46.325749 -939.67571)
(892.63626 -416.64781 -642.98322)
(692.71864 -13.38735 -1024.699)
(656.28408 -107.00743 -901.51097)
(918.94713 76.424737 -1412.7844)
(522.65792 -121.45603 -1329.8351)
(829.8647 74.180991 -997.82814)
(472.34608 85.234857 -994.67383)
(578.59195 -204.18182 -890.83964)
(631.66862 -106.05815 -810.64713)
(684.87991 -541.32713 -295.20482)
(804.49017 -255.92524 -560.15966)
(394.9278 -245.39792 -526.94146)
(1041.3679 -500.03661 -1332.4358)
(600.68196 -298.29366 -839.37065)
(1046.223 -763.92725 -371.12043)
(693.41185 14.793087 -811.55126)
(3741.2725 -1766.3662 -2464.3689)
(2569.24 5405.885 1918.4633)
(-4528.6495 5899.3302 10043.535)
(-26200.163 -3856.2691 2015.8942)
(-11612.229 5925.8481 3426.7873)
(8604.8621 11114.375 -2106.864)
(-1441.7547 6715.9015 6617.1303)
(-970.94853 5760.4818 2020.7529)
(-272.70038 -3009.0541 2316.3574)
(827.76682 -2264.7314 775.69201)
(-2385.2584 -1036.2893 711.21725)
(1017.8031 -1518.2538 1510.2749)
(-903.42909 -2411.597 2045.8636)
(773.5153 -2150.0001 1210.5376)
(-591.18627 -1982.6815 772.60279)
(-1212.9252 6148.196 -4493.7897)
(-9373.5401 1532.4632 -6785.4764)
(-46433.483 21609.927 -44064.789)
(-129332.34 -21825.756 11011.618)
(-15893.25 -22447.15 -16021.326)
(1613.9554 641.99421 -3996.9712)
(-48486.313 26310.765 -1714.2569)
(-25733.293 -22124.625 -4829.2712)
(-1797.1473 -53.239672 303.92669)
(69.559271 -7.9359031 -1.7824846)
(64.725411 -4.9413201 -0.043127126)
(-16.855583 -14.781189 -12.031447)
(55.852077 -1.1673027 -7.8620572)
(54.088013 -11.090353 -2.0617156)
(0.55290452 -6.0994387 -5.8558055)
(-20.209724 -3.8286385 0.36643265)
(65.349129 -15.403811 -7.8650709)
(60.189928 -6.494191 -2.1247822)
(56.538661 -1.6685673 -7.9800168)
(39.089319 -2.3563935 -4.1454907)
(-3.203247 -1.7668863 0.059761144)
(-74.7678 -11.215142 12.136813)
(45.80825 -8.0840247 -0.11929284)
(46.730833 17.826739 3.3685719)
(18.610965 -3.4332241 -1.4621791)
(42.786779 2.7490612 5.3121362)
(-80.623671 4.6828887 17.707074)
(44.673854 8.0303259 7.8418255)
(7.1398225 -1.859844 1.9167498)
(50.47323 7.8744158 -2.2048573)
(48.113652 -0.65702982 -8.5405101)
(61.97205 6.8062829 -4.0977238)
(-60.586342 -5.1295659 0.035163127)
(58.009515 5.3118653 -1.9686748)
(29.874141 5.8820105 -0.82799726)
(40.034764 -0.86618973 -10.440125)
(28.546648 -0.0007443784 -5.4748369)
(68.85312 4.8483294 -4.3503978)
(55.049731 4.8589598 -2.895151)
(-5.1869058 0.42044968 7.0469553)
(14.672816 4.2072085 0.058404771)
(4.1672848 -13.168634 6.9018998)
(7.7010746 0.87221791 -3.0843765)
(42.5957 0.38348185 5.5493103)
(39.562372 4.6604019 -1.1454544)
(38.950137 -6.5791901 2.965127)
(43.025201 1.0017976 7.727297)
(52.905254 -13.299968 4.154607)
(52.070742 5.9702355 -0.9315767)
(66.838874 10.173119 -3.285704)
(61.269874 6.0367413 -2.4865926)
(49.669354 6.6898034 -1.1756398)
(46.447966 -12.999617 6.613891)
(71.2212 -7.2591934 -2.5139779)
(77.553138 -12.202055 -9.0133634)
(80.351169 -5.0115971 -2.9456344)
(67.857109 -4.5815375 -0.36418877)
(77.279576 -6.8100555 2.0606971)
(67.167605 -9.8221234 -2.4468019)
(58.077378 -1.2932281 -9.3772855)
(69.321236 -9.1112109 -9.9249698)
(75.120222 -0.1691393 -17.879071)
(64.593186 -6.2228468 -2.6664064)
(61.073748 -1.5079825 -9.4121814)
(48.987454 -2.1833983 -4.0158318)
(79.123423 -6.7559216 -9.937335)
(81.571326 -5.0096627 -3.4454467)
(81.255839 -1.2301594 -15.311271)
(82.338824 -1.1285192 -5.5173989)
(55.816691 13.909102 5.6143416)
(36.632518 -2.9342679 -0.74738328)
(49.556888 2.205662 7.2244935)
(79.064647 -3.6482419 1.2205237)
(66.670353 11.609443 13.772008)
(80.551532 -0.70243127 0.66722459)
(65.279959 0.65622896 18.025238)
(47.896637 6.5560487 8.9094758)
(60.320986 -1.5012636 19.728348)
(49.821263 -0.99742444 -10.780276)
(67.980454 5.1866241 -4.0129951)
(68.575327 -0.073089501 -21.026976)
(75.711637 3.7415892 -11.966489)
(49.948248 0.18732235 7.9074359)
(51.030906 3.976345 -0.59601775)
(43.578342 -3.1562723 7.1773661)
(79.760227 -0.91850006 0.27819823)
(65.509798 -0.23605943 17.82565)
(80.672702 2.4151194 0.94762418)
(63.744939 -0.32300461 16.215803)
(43.988508 -13.493779 10.197991)
(55.714902 -1.8379525 20.95411)
(62.314922 -9.5047672 15.898628)
(60.184356 11.053346 -6.3096401)
(68.976406 8.1699636 -10.547064)
(64.803882 5.7544698 -2.5010125)
(81.597463 4.9970911 -9.979286)
(82.231959 4.5262366 -3.8310373)
(46.994323 -15.1172 7.5845768)
(79.907388 2.9265233 1.1372874)
(68.420725 -4.2470116 12.810933)
(69.643956 -12.890659 9.743953)
(87.752613 -10.626246 -21.143338)
(81.936784 -11.077983 -10.646372)
(87.449972 -4.6859855 -3.3462919)
(95.801498 -9.8545157 -20.301399)
(107.65841 -5.249732 -4.3903237)
(85.297343 -5.6975599 1.9630702)
(106.55829 -2.8968907 4.3190387)
(97.551171 6.600494 23.915426)
(72.278227 -8.4219307 -12.057125)
(81.959309 -1.1726918 -21.254214)
(95.911636 -10.4036 -23.506564)
(95.653096 -3.5071758 -33.831319)
(88.727416 -4.6296304 -3.9162279)
(87.840542 -1.6595726 -17.753845)
(91.138356 -1.3118865 -6.1325925)
(103.16579 -9.4062398 -21.481714)
(109.64228 -4.8678398 -5.3735509)
(104.053 -2.9025227 -27.816341)
(112.47488 -2.0360502 -8.2962165)
(74.657509 10.828059 16.369044)
(89.319278 -0.93293402 0.83556064)
(77.107011 0.56860281 19.914962)
(108.08865 -2.8866517 3.7604982)
(97.876254 4.4371142 26.022357)
(110.5435 -1.3802238 2.0505339)
(100.64067 0.56325603 27.860914)
(70.468417 -2.0694043 24.611771)
(91.430021 8.8602981 32.248737)
(95.532203 1.6727311 36.509719)
(76.882393 -0.25590955 -23.084297)
(82.334022 3.9464493 -15.045128)
(85.672352 -0.60543459 -37.411779)
(101.59955 8.3067843 -27.959072)
(71.073777 -10.4665 20.071975)
(95.867272 0.093433356 36.842129)
(93.164513 -5.6820402 32.1788)
(82.076506 5.9677335 -12.596239)
(93.829029 10.348323 -23.853307)
(90.085521 4.0057391 -4.2654257)
(102.44237 9.0859919 -21.461336)
(109.61783 4.6048733 -5.2897612)
(78.164143 -3.4551923 15.996485)
(108.16089 2.7577092 3.5599151)
(98.015419 -4.2234235 26.101667)
(90.800907 -9.6773074 32.274974)
(92.501553 -11.311436 -25.128409)
(107.15624 -17.897708 -40.576144)
(99.202557 -9.5631521 -24.221271)
(114.4352 -5.918644 -4.1274573)
(128.19577 -24.527786 -38.283325)
(138.47749 -9.9881589 -1.8927402)
(113.00465 -3.2202205 5.7205457)
(103.83923 7.0776653 28.92749)
(135.70565 -5.1706289 12.866784)
(128.0183 8.6287595 52.449786)
(108.59239 6.6130909 46.337191)
(101.34315 -12.310484 -27.627514)
(100.45136 -4.2556297 -39.756666)
(124.74671 -23.581355 -48.012534)
(129.13977 -6.818175 -65.629764)
(104.13925 5.3026045 30.411428)
(117.52599 -1.3720816 3.2369649)
(106.83918 0.63764483 31.006207)
(138.27492 -5.7964364 11.300765)
(121.93227 3.673505 47.937631)
(143.38061 -3.4132546 5.8227101)
(125.84884 1.0006799 46.730281)
(102.11399 1.0986783 39.814282)
(113.3183 10.865056 55.407081)
(118.09301 1.6598456 58.067577)
(89.281342 -0.78901818 -43.496382)
(106.81482 10.469286 -33.371664)
(-54.087189 20.59523 -101.48866)
(129.26149 -0.59247893 -69.450809)
(131.91793 17.350888 -57.383796)
(99.216744 -6.1123908 37.166442)
(119.08552 0.049353874 57.767621)
(117.50535 -2.9960724 56.114861)
(99.989212 12.914345 -28.891928)
(132.07558 20.762035 -51.41834)
(116.39699 5.3450931 -5.5522168)
(137.93561 18.338765 -42.91298)
(142.93048 9.0262052 -6.2290355)
(133.5977 6.2268127 0.32736046)
(104.5818 -3.3044919 28.92312)
(139.29914 5.4762764 9.7019927)
(123.24382 -3.2581305 46.168993)
(136.2286 8.055129 14.762428)
(116.03079 -8.9333596 56.177526)
(119.71929 -24.202399 -48.051809)
(176.94142 -51.202398 -85.187732)
(141.00072 -30.499289 -45.12075)
(149.4283 -11.988703 -0.48734479)
(196.21032 -52.623535 -64.72909)
(195.40004 -21.26964 9.8922423)
(145.76543 -6.4968077 16.840017)
(126.86169 5.2709453 56.203983)
(187.22194 -12.593916 35.565159)
(152.13247 15.669622 93.354362)
(123.09658 6.0529411 67.049415)
(139.31661 13.078408 104.87456)
(140.60072 -25.880642 -56.831596)
(1.0421492 5.7546005 -39.426824)
(146.33146 -8.6496556 -78.270262)
(204.35721 -55.984203 -97.149682)
(83.93393 2.3245909 -136.36619)
(218.50361 -18.558316 -131.84982)
(122.65692 1.9400763 67.127687)
(141.07023 15.413757 107.81894)
(149.60337 1.8657111 107.42269)
(144.2852 -0.76581383 -81.705021)
(146.48553 20.171121 -68.892267)
(21.682277 -4.0426837 -182.00863)
(208.66943 -2.605976 -137.14822)
(213.24596 40.325935 -111.41035)
(123.48442 -3.8059601 66.207667)
(150.43167 -0.53007076 107.60529)
(142.87211 -6.2265722 107.71849)
(148.25974 25.654737 -63.432116)
(205.33886 54.901908 -98.822012)
(154.93902 10.89239 -5.6892951)
(144.19378 8.1086834 1.9594154)
(210.13772 45.302295 -78.392466)
(204.91891 20.057403 1.3910424)
(183.80743 17.089796 17.079095)
(130.27404 -3.6705594 53.980793)