/*--------------------------------*- C++ -*----------------------------------*\
  =========                 |
  \\      /  F ield         | OpenFOAM: The Open Source CFD Toolbox
   \\    /   O peration     | Website:  https://openfoam.org
    \\  /    A nd           | Version:  12
     \\/     M anipulation  |
\*---------------------------------------------------------------------------*/
FoamFile
{
    format      ascii;
    class       volScalarField;
    location    "4";
    object      p;
}
// * * * * * * * * * * * * * * * * * * * * * * * * * * * * * * * * * * * * * //

dimensions      [0 2 -2 0 0 0 0];

internalField   nonuniform List<scalar> 
364563
(
-871.58043
-712.10893
-559.50343
-450.81657
-366.35121
-295.539
-234.13102
-179.78996
-130.94451
-86.461435
-45.499454
-7.4177788
28.284171
62.004844
94.068315
124.74262
154.25363
182.79352
210.52853
237.60508
264.15456
290.29764
316.14622
341.80624
367.37976
392.96757
418.67137
444.59594
470.85129
497.55506
524.83529
552.83377
581.71013
611.64708
642.85719
675.59162
710.15186
746.90549
786.30857
828.93859
875.544
927.12072
985.03421
1051.2216
1128.5441
1221.5144
1338.0375
1493.8396
1722.0761
2110.4947
-871.63438
-712.13445
-559.52038
-450.83095
-366.36416
-295.55102
-234.14211
-179.80037
-130.95431
-86.470659
-45.508143
-7.4258011
28.27673
61.998067
94.062111
124.7371
154.24863
182.78899
210.52445
237.60141
264.15144
290.29495
316.14387
341.80406
367.37768
392.96556
418.66945
444.59412
470.84961
497.55354
524.83395
552.83262
581.7092
611.64639
642.85674
675.59145
710.15199
746.90594
786.30936
828.93975
875.54555
927.12269
985.03664
1051.2245
1128.5477
1221.5188
1338.0428
1493.8462
1722.0846
2110.5062
-871.67685
-712.16212
-559.54078
-450.84793
-366.37912
-295.56455
-234.1545
-179.81181
-130.96493
-86.48048
-45.517109
-7.4338462
28.269612
61.991882
94.056886
124.73284
154.24525
182.78639
210.52259
237.60035
264.15123
290.2955
316.14502
341.80563
367.37955
392.9677
418.67185
444.59684
470.85267
497.55697
524.83778
552.83687
581.71389
611.65156
642.86242
675.59766
710.15877
746.91331
786.31735
828.94839
875.55487
927.13273
985.04745
1051.2362
1128.5602
1221.5323
1338.0576
1493.8624
1722.1026
2110.527
-871.73064
-712.19938
-559.56998
-450.87297
-366.40149
-295.58493
-234.17327
-179.82921
-130.9811
-86.495433
-45.530793
-7.4461995
28.258604
61.982231
94.048619
124.72595
154.23968
182.78202
210.5194
237.59837
264.15047
290.29587
316.14632
341.80765
367.38216
392.97083
418.67552
444.60105
470.85745
497.56235
524.84378
552.84352
581.72121
611.65958
642.87118
675.60719
710.1691
746.92448
786.32938
828.96131
875.5687
927.14752
985.06324
1051.2531
1128.5783
1221.5517
1338.0783
1493.8848
1722.127
2110.5542
-871.79181
-712.24494
-559.60746
-450.90599
-366.43146
-295.61254
-234.19891
-179.8531
-131.00337
-86.516114
-45.549831
-7.4635429
28.242976
61.968333
94.036478
124.71557
154.231
182.77498
210.51395
237.59453
264.14822
290.2951
316.14683
341.80927
367.38473
392.97427
418.67979
444.60615
470.86338
497.56913
524.85141
552.85202
581.7306
611.66989
642.88243
675.61941
710.18232
746.9387
786.34463
828.9776
875.58606
927.16596
985.08282
1051.2738
1128.6003
1221.5751
1338.1032
1493.9113
1722.1555
2110.5854
-871.86037
-712.29872
-559.65337
-450.94732
-366.46953
-295.64798
-234.23207
-179.8842
-131.03251
-86.543303
-45.575037
-7.4867237
28.221845
61.949272
94.019512
124.70071
154.21823
182.76424
210.50523
237.58781
264.14345
290.29216
316.14558
341.80951
367.38632
392.97712
418.68382
444.61133
470.86968
497.57653
524.85991
552.86161
581.74128
611.68167
642.89532
675.63342
710.19745
746.95496
786.36201
828.99609
875.60565
927.18666
985.10465
1051.2968
1128.6245
1221.6006
1338.13
1493.9397
1722.1856
2110.6181
-871.93705
-712.36114
-559.70805
-450.99738
-366.51618
-295.69182
-234.2734
-179.92319
-131.06924
-86.577783
-45.607231
-7.516592
28.194334
61.924145
93.996798
124.68043
154.20039
182.74883
210.49222
237.57718
264.13514
290.28608
316.14157
341.80741
367.38599
392.97842
418.68667
444.61565
470.87542
497.58363
524.86834
552.87134
581.7523
611.69395
642.90884
675.64816
710.21337
746.97204
786.38021
829.01538
875.626
927.20805
985.12707
1051.3203
1128.649
1221.6262
1338.1568
1493.9678
1722.2153
2110.6499
-872.02267
-712.43275
-559.772
-451.05668
-366.57197
-295.74463
-234.32352
-179.97075
-131.11429
-86.620314
-45.64721
-7.5539736
28.159591
61.892077
93.967445
124.65383
154.17656
182.72778
210.47395
237.56167
264.12233
290.27586
316.13381
341.80197
367.3827
392.97716
418.68731
444.61809
470.87956
497.5894
524.87567
552.88017
581.76256
611.70559
642.9218
675.66238
710.22879
746.98858
786.3978
829.03396
875.64551
927.22844
985.14829
1051.3423
1128.6719
1221.6499
1338.1815
1493.9935
1722.2422
2110.6788
-872.11803
-712.5142
-559.84579
-451.12575
-366.63744
-295.80699
-234.38303
-180.02751
-131.16833
-86.671624
-45.695738
-7.5996654
28.11679
61.852221
93.930585
124.62001
154.14583
182.70017
210.44947
237.54029
264.104
290.26049
316.12128
341.79212
367.37539
392.97223
418.68462
444.61751
470.88097
497.59268
524.88071
552.88688
581.77083
611.71532
642.93289
675.67472
710.24227
747.00309
786.41324
829.05021
875.66249
927.24607
985.16652
1051.3611
1128.6912
1221.6698
1338.2019
1494.0147
1722.2644
2110.7026
-872.22387
-712.60612
-559.93
-451.20516
-366.71314
-295.87948
-234.45252
-180.0941
-131.23204
-86.732421
-45.75356
-7.6544432
28.065128
61.803745
93.885364
124.57811
154.10731
182.66507
210.4178
237.51205
264.07914
290.23893
316.10289
341.77676
367.36291
392.96246
418.67742
444.6127
470.8784
497.59221
524.88219
552.89015
581.77576
611.72175
642.94067
675.68369
710.25228
747.01399
786.42487
829.06245
875.67521
927.25918
985.17994
1051.3748
1128.7052
1221.6839
1338.2164
1494.0296
1722.28
2110.7194
-872.34088
-712.70915
-560.0252
-451.29548
-366.79965
-295.96266
-234.5326
-180.17116
-131.30608
-86.803393
-45.821399
-7.7190618
28.003818
61.745834
93.830938
124.52725
154.06008
182.62153
210.37798
237.47594
264.0467
290.21008
316.07752
341.75474
367.34407
392.94663
418.66442
444.60236
470.87054
497.58662
524.8787
552.88856
581.77588
611.72337
642.94359
675.68771
710.25719
747.0196
786.43101
829.06895
875.68192
927.26599
985.18676
1051.3816
1128.7118
1221.6905
1338.223
1494.0364
1722.2872
2110.7277
-872.46964
-712.82386
-560.13198
-451.39726
-366.89753
-296.05712
-234.62385
-180.25928
-131.39108
-86.885214
-45.899956
-7.7942565
27.932093
61.677686
93.766472
124.46657
154.00326
182.56862
210.32902
237.43093
264.00561
290.17284
316.04402
341.72484
367.31762
392.92346
418.64432
444.58514
470.85597
497.5745
524.86878
552.8806
581.76964
611.7186
642.94004
675.68513
710.25535
747.01826
786.42996
829.068
875.68091
927.26479
985.18527
1051.3797
1128.7096
1221.688
1338.2202
1494.0335
1722.2845
2110.7257
-872.61064
-712.95077
-560.25085
-451.51103
-367.00731
-296.1634
-234.72684
-180.35907
-131.48766
-86.978528
-45.989909
-7.8807349
27.849211
61.598525
93.691151
124.39519
153.93593
182.5054
210.26995
237.376
263.9548
290.12607
316.0012
341.68585
367.28229
392.89161
418.61576
444.55963
470.83327
497.55434
524.85089
552.86471
581.75545
611.70582
642.92837
675.6743
710.24507
747.00828
786.42004
829.05792
875.67052
927.25393
985.17386
1051.3677
1128.697
1221.6747
1338.2064
1494.0194
1722.2704
2110.7121
-872.7643
-713.09032
-560.38227
-451.63727
-367.1295
-296.28201
-234.84211
-180.47108
-131.59641
-87.083945
-46.091896
-7.979168
27.754467
61.507607
93.604191
124.31231
153.85722
182.43095
210.19978
237.31014
263.8932
290.06867
315.94792
341.63655
367.23682
392.84979
418.57737
444.52442
470.80097
497.52466
524.82352
552.83932
581.73171
611.68341
642.90697
675.65358
710.22474
746.98805
786.39964
829.03714
875.64917
927.23188
985.15101
1051.344
1128.6725
1221.6494
1338.1804
1493.9928
1722.2436
2110.6856
-872.93092
-713.24289
-560.52664
-451.7764
-367.26452
-296.41343
-234.97015
-180.59583
-131.71785
-87.202026
-46.206504
-8.0901731
27.647209
61.404243
93.504863
124.21715
153.76633
182.3444
210.11762
237.23236
263.81979
289.99957
315.88304
341.57577
367.17999
392.79672
418.52782
444.47813
470.75765
497.48398
524.78515
552.8029
581.69689
611.64983
642.87427
675.62142
710.1928
746.95603
786.36727
829.00418
875.61544
927.19724
985.11538
1051.3074
1128.6348
1221.6108
1338.1409
1493.9527
1722.2032
2110.6452
-873.11072
-713.40875
-560.6843
-451.92878
-367.41277
-296.55805
-235.11137
-180.73375
-131.85247
-87.333264
-46.334255
-8.2142988
27.526858
61.287818
93.392509
124.10899
153.66248
182.24494
210.02259
237.14177
263.73362
289.91777
315.80552
341.50241
367.11064
392.73118
418.46585
444.41945
470.70195
497.43092
524.73436
552.75401
581.64952
611.6036
642.82882
675.57638
710.14784
746.91083
786.32155
828.95772
875.56804
927.14878
985.06579
1051.2566
1128.5829
1221.5579
1338.0871
1493.8982
1722.1482
2110.5902
-873.30382
-713.58809
-560.85547
-452.09467
-367.57453
-296.71619
-235.26614
-180.88522
-132.00064
-87.478071
-46.475581
-8.352005
27.392923
61.157808
93.266567
123.98725
153.54503
182.13187
209.91394
237.03756
263.63383
289.82236
315.7144
341.41547
367.02771
392.65206
418.3903
444.34717
470.63262
497.36419
524.66985
552.69134
581.58829
611.54343
642.76931
675.51718
710.08859
746.85122
786.26131
828.89661
875.50588
927.08545
985.00123
1051.1908
1128.516
1221.4899
1338.0182
1493.8287
1722.0783
2110.5202
-873.51025
-713.78102
-561.0403
-452.27426
-367.75002
-296.88809
-235.43469
-181.05051
-132.16267
-87.636757
-46.630815
-8.5036478
27.245022
61.013797
93.126585
123.85141
153.41345
182.0046
209.79104
236.91904
263.51968
289.71254
315.60883
341.31403
366.93026
392.55837
418.30013
444.26023
470.54857
497.28267
524.59049
552.61374
581.51206
611.46817
642.69464
675.44273
710.01401
746.77619
786.18556
828.81991
875.42807
927.00642
984.92094
1051.1093
1128.4333
1221.4062
1337.9338
1493.7438
1721.9931
2110.435
-873.7299
-713.98752
-561.23884
-452.46761
-367.93934
-297.07388
-235.61717
-181.22979
-132.33872
-87.809519
-46.800172
-8.669464
27.082891
60.855493
92.972235
123.70113
153.26732
181.86269
209.65338
236.78566
263.39056
289.58765
315.4881
341.19735
366.81747
392.44927
418.19446
444.1577
470.44886
497.18542
524.49532
552.52027
581.41989
611.3769
642.6039
675.35215
709.92325
746.68494
786.09354
828.72692
875.33394
926.91107
984.82434
1051.0115
1128.3345
1221.3066
1337.8337
1493.6435
1721.893
2110.3354
-873.96254
-714.20744
-561.45098
-452.67468
-368.14245
-297.27354
-235.81361
-181.42307
-132.52885
-87.99642
-46.983735
-8.8495587
26.9064
60.682734
92.803323
123.53616
153.10636
181.70581
209.50061
236.63701
263.24603
289.4472
315.35166
341.06482
366.68869
392.32406
418.07257
444.03885
470.33273
497.07168
524.38359
552.41018
581.31105
611.26893
642.49641
675.24479
709.81569
746.57687
785.98472
828.61713
875.22305
926.79899
984.71107
1050.8971
1128.2192
1221.1907
1337.7176
1493.5278
1721.7782
2110.2222
-874.20776
-714.44047
-561.67649
-452.89527
-368.3592
-297.48693
-236.02385
-181.63025
-132.73295
-88.197379
-47.181441
-9.0438925
26.715561
60.495503
92.619797
123.35642
152.93047
181.5338
209.33252
236.47285
263.0858
289.29085
315.19914
340.91603
366.54349
392.18226
417.93395
443.90316
470.19966
496.94091
524.25478
552.28295
581.18504
611.14376
642.37173
675.12025
709.69095
746.45166
785.85879
828.49028
875.09515
926.66998
984.58097
1050.7661
1128.0874
1221.0585
1337.5855
1493.3964
1721.6482
2110.0951
-874.46492
-714.68612
-561.91495
-453.129
-368.58923
-297.71372
-236.24761
-181.85105
-132.95077
-88.412147
-47.393068
-9.2522689
26.510541
60.293935
92.421761
123.16198
152.73967
181.34667
209.14909
236.29312
262.90975
289.11847
315.03036
340.75076
366.38161
392.0236
417.77832
443.75031
470.04934
496.79281
524.10858
552.13832
581.04161
611.00119
642.22967
674.97835
709.54892
746.30922
785.71569
828.34635
874.95025
926.52407
984.43409
1050.6183
1127.939
1220.91
1337.4373
1493.2492
1721.503
2109.9531
-874.73319
-714.94369
-562.16574
-453.3753
-368.83202
-297.95341
-236.48439
-182.08498
-133.18184
-88.640299
-47.618216
-9.4743201
26.291675
60.078332
92.209484
122.95307
152.53417
181.1446
208.95046
236.09793
262.71799
288.93011
314.84535
340.56902
366.20303
391.84805
417.60563
443.58027
469.88172
496.62734
523.94497
551.97626
580.88078
610.84125
642.07028
674.8192
709.38971
746.14969
785.55561
828.18554
874.7886
926.36153
984.27071
1050.4543
1127.7745
1220.7454
1337.2733
1493.0865
1721.3423
2109.7957
-875.01145
-715.21224
-562.42803
-453.63338
-369.08679
-298.20526
-236.73349
-182.33137
-133.42552
-88.881216
-47.856299
-9.7094936
26.059482
59.84918
91.983419
122.73013
152.31437
180.92796
208.73698
235.88761
262.51082
288.72606
314.64438
340.37106
366.008
391.65584
417.41609
443.39325
469.69701
496.44471
523.76417
551.79701
580.70278
610.6642
641.89388
674.64314
709.2137
745.97348
785.37898
828.00832
874.61068
926.18287
984.09135
1050.2744
1127.5944
1220.5654
1337.0939
1492.9085
1721.1664
2109.6232
-875.29834
-715.49059
-562.70072
-453.90223
-369.35258
-298.46833
-236.99398
-182.58934
-133.68095
-89.134076
-48.106531
-9.9570397
25.814676
59.60716
91.744217
122.49377
152.08087
180.69733
208.50921
235.66271
262.28877
288.50683
314.42794
340.15737
365.79699
391.44743
417.21017
443.1897
469.49567
496.2454
523.56667
551.60108
580.50815
610.4706
641.70102
674.45074
709.0215
745.78122
785.18645
827.81536
874.41717
925.98879
983.89674
1050.0794
1127.3993
1220.3706
1336.8999
1492.7159
1720.976
2109.4359
-875.59225
-715.77732
-562.98252
-454.18059
-369.62817
-298.74145
-237.26474
-182.85778
-133.94708
-89.397853
-48.367923
-10.216005
25.558177
59.353159
91.49274
122.24483
151.83448
180.4535
208.26794
235.42399
262.05259
288.27318
314.19679
339.9287
365.57075
391.22357
416.98863
442.97037
469.27845
496.03014
523.35321
551.38921
580.29765
610.26122
641.4925
674.24283
708.81393
745.57376
784.9789
827.60755
874.20901
925.78022
983.68782
1049.8703
1127.1902
1220.1619
1336.6921
1492.5096
1720.7718
2109.2347
-875.89139
-716.0708
-563.2719
-454.46701
-369.91216
-299.02324
-237.54442
-183.1354
-134.22263
-89.671319
-48.639282
-10.485229
25.291114
59.08828
91.230066
121.98438
151.57626
180.19751
208.01419
235.17247
261.8033
288.02611
313.95193
339.68604
365.33028
390.98526
416.75244
442.73627
469.04635
495.79995
523.1248
551.16242
580.0723
610.0371
641.26937
674.02045
708.59207
745.35219
784.75742
827.386
873.98729
925.55829
983.46573
1049.6481
1126.9682
1219.9405
1336.4716
1492.2906
1720.5549
2109.0205
-876.19378
-716.36924
-563.56715
-454.75984
-370.20295
-299.31214
-237.83151
-183.4207
-134.50615
-89.953056
-48.919221
-10.763354
25.014821
58.813836
90.957488
121.71368
151.30746
179.93061
207.7492
234.90939
261.54213
287.76686
313.69461
339.43065
365.07683
390.73376
416.50289
442.48865
468.80064
495.5561
522.88271
550.92198
579.83337
609.79949
641.03289
673.78487
708.35718
745.11777
784.52329
827.152
873.75332
925.32431
983.23177
1049.4143
1126.7348
1219.7076
1336.2398
1492.0603
1720.3264
2108.7945
-876.49734
-716.67067
-563.86641
-455.05727
-370.49878
-299.60645
-238.12433
-183.71205
-134.79603
-90.241477
-49.206176
-11.048837
24.730822
58.531337
90.676504
121.43423
151.02955
179.65427
207.47444
234.63622
261.27056
287.49691
313.42631
339.16402
364.8119
390.47058
416.24149
442.22905
468.54284
495.30009
522.62846
550.66941
579.58237
609.54991
640.78456
673.5376
708.11076
744.87201
784.278
826.90705
873.5086
925.07979
982.98746
1049.1703
1126.4913
1219.4648
1335.9981
1491.8199
1720.0878
2108.5581
-876.7999
-716.97305
-564.16771
-455.3574
-370.79777
-299.90431
-238.42107
-184.00766
-135.09052
-90.534847
-49.49843
-11.339972
24.440814
58.24247
90.388796
121.1477
150.74423
179.37017
207.19159
234.35464
260.99028
287.21796
313.14873
338.88786
364.53723
390.19745
415.96997
441.9592
468.27471
495.03371
522.36381
550.40647
579.32105
609.2901
640.52611
673.28034
707.85451
744.61658
784.02324
826.65282
873.25481
924.82639
982.73447
1048.9178
1126.2394
1219.2138
1335.7481
1491.5713
1719.8407
2108.3129
-877.09926
-717.27428
-564.46899
-455.65821
-371.09795
-300.2038
-238.71981
-184.30564
-135.38774
-90.83131
-49.794135
-11.634917
24.146637
57.949076
90.096207
120.85594
150.45333
179.08017
206.9025
234.06651
260.70316
286.9319
312.86378
338.60411
364.25475
389.91634
415.69032
441.6811
467.99824
494.75892
522.09075
550.13512
579.05136
609.02199
640.25945
673.01499
707.59031
744.35338
783.76089
826.39119
872.99381
924.56597
982.47464
1048.6586
1125.9809
1218.9562
1335.4916
1491.316
1719.5869
2108.0605
-877.39323
-717.57219
-564.76817
-455.95764
-371.39731
-300.50291
-239.01859
-184.60404
-135.68575
-91.128915
-50.091341
-11.93172
23.850248
57.653119
89.800709
120.56094
150.15885
178.78625
206.6092
233.77388
260.41126
286.64079
312.57356
338.31487
363.9666
389.62938
415.40469
441.39691
467.7156
494.47792
521.81144
549.85752
578.77545
608.74771
639.9867
672.74365
707.32024
744.08445
783.49296
826.12416
872.72759
924.30053
982.20997
1048.3947
1125.7179
1218.6941
1335.2305
1491.0561
1719.3281
2107.8028
-877.67962
-717.86465
-565.06313
-456.25362
-371.69377
-300.7996
-239.31536
-184.90083
-135.98251
-91.42564
-50.388019
-12.228342
23.553699
57.356665
89.504381
120.26477
149.8629
178.49057
206.31384
233.47892
260.11677
286.34687
312.28031
338.0224
363.67505
389.33889
415.1154
441.10897
467.42913
494.19303
521.52821
549.57599
578.49561
608.46953
639.7101
672.46854
707.04651
743.81197
783.22164
825.8539
872.45833
924.03221
981.94256
1048.1283
1125.4524
1218.4296
1334.967
1490.7936
1719.0665
2107.5419
-877.95627
-718.1495
-565.35174
-456.54403
-371.98525
-301.09179
-239.60807
-185.19393
-136.27596
-91.719407
-50.68208
-12.522678
23.259109
57.061853
89.209386
119.96964
149.56769
178.19535
206.01869
233.18392
259.82202
286.05248
311.9864
337.72912
363.38253
389.0473
414.8249
440.81972
467.14128
493.9067
521.24349
549.29293
578.21425
608.18982
639.43202
672.192
706.77143
743.53827
782.94922
825.58269
872.18826
923.76323
981.67465
1047.8614
1125.1865
1218.1648
1334.7031
1490.5305
1718.804
2107.2796
-878.2211
-718.42466
-565.63192
-456.8268
-372.26967
-301.3774
-239.89462
-185.48127
-136.564
-92.008102
-50.971394
-12.81258
22.968652
56.770882
88.917948
119.6778
149.27551
177.90291
205.72609
232.89126
259.52942
285.76007
311.69431
337.4375
363.09156
388.75715
414.53573
440.53171
466.85459
493.62146
520.9598
549.01086
577.93383
607.91106
639.15488
671.91645
706.4974
743.2657
782.67806
825.31287
871.91972
923.49593
981.40854
1047.5964
1124.9227
1217.9019
1334.4411
1490.2691
1718.543
2107.0183
-878.4721
-718.68809
-565.9016
-457.09985
-372.54495
-301.65436
-240.17293
-185.76074
-136.84452
-92.289592
-51.253805
-13.095867
22.684536
56.485987
88.632338
119.39155
148.9887
177.61564
205.43846
232.6034
259.24145
285.47214
311.40658
337.15012
362.80471
388.47101
414.25048
440.24753
466.57163
493.33987
520.67968
548.7323
577.65687
607.63573
638.88117
671.64434
706.22688
742.99671
782.41057
825.04683
871.65509
923.23265
981.14656
1047.3357
1124.663
1217.6432
1334.1832
1490.0117
1718.2855
2106.7602
-878.70738
-718.93782
-566.1588
-457.36118
-372.80907
-301.92061
-240.44093
-186.03026
-137.1154
-92.561741
-51.52715
-13.370347
22.408983
56.209428
88.354848
119.11322
148.70963
177.33593
205.15825
232.32281
258.96064
285.19125
311.12577
336.86957
362.52459
388.19149
413.97177
439.96978
466.29501
493.06452
520.40572
548.45981
577.38591
607.36634
638.61339
671.37817
705.96231
742.73375
782.14918
824.78699
871.39676
922.97578
980.89107
1047.0815
1124.41
1217.3911
1333.9317
1489.7604
1718.034
2106.5075
-878.92519
-719.17202
-566.40162
-457.60885
-373.06007
-302.17418
-240.6966
-186.28777
-137.37457
-92.822436
-51.789282
-13.633836
22.144214
55.943463
88.087779
118.84515
148.44067
177.06622
204.88792
232.052
258.6895
284.91994
310.85446
336.59843
362.25379
387.92121
413.70218
439.70106
466.02731
492.79797
520.14045
548.19592
577.12347
607.10542
638.35404
671.12042
705.70619
742.47926
781.89633
824.53577
871.14713
922.72769
980.64444
1046.8361
1124.1658
1217.1478
1333.689
1489.5176
1717.7906
2106.2624
-879.12395
-719.38899
-566.6283
-457.84105
-373.29608
-302.41313
-240.938
-186.53128
-137.61998
-93.069606
-52.038091
-13.884183
21.892424
55.690329
87.833411
118.58966
148.1842
176.8089
204.62989
231.79343
258.43053
284.66074
310.59519
336.33925
361.99487
387.66273
413.44429
439.44392
465.77108
492.54278
519.88642
547.94316
576.87208
606.85547
638.1056
670.87357
705.46096
742.2357
781.65446
824.29558
870.9086
922.49075
980.409
1046.6021
1123.9328
1216.9157
1333.4572
1489.2856
1717.5576
2106.0272
-879.30228
-719.58721
-566.83721
-458.05609
-373.51536
-302.63569
-241.16327
-186.7589
-137.8497
-93.30125
-52.271525
-14.11929
21.655757
55.452217
87.593977
118.34904
147.94252
176.56632
204.38657
231.54951
258.18618
284.4161
310.35043
336.09452
361.75033
387.41853
413.20059
439.20087
465.52882
492.30144
519.64612
547.70401
576.6342
606.61896
637.87055
670.64006
705.22907
742.00548
781.42594
824.06878
870.68349
922.26729
980.18705
1046.3815
1123.7133
1216.6969
1333.2386
1489.0666
1717.3372
2105.8042
-879.45907
-719.76538
-567.02693
-458.25244
-373.7163
-302.84017
-241.37067
-186.96882
-138.06186
-93.515459
-52.487622
-14.337141
21.43628
55.231242
87.371636
118.12547
147.71789
176.34076
204.16024
231.32257
257.95877
284.18839
310.12255
335.86662
361.52256
387.19103
412.9735
438.97432
465.30294
492.07636
519.42197
547.48091
576.41227
606.39831
637.6513
670.4223
705.01289
741.79096
781.21313
823.85769
870.47412
922.05956
979.98084
1046.1766
1123.5095
1216.4936
1333.0354
1488.8627
1717.1317
2105.5956
-879.59344
-719.92241
-567.19624
-458.42878
-373.89748
-303.02508
-241.55863
-187.15939
-138.25476
-93.710447
-52.684536
-14.535833
21.235947
55.029405
87.168436
117.92106
147.5124
176.13437
203.95308
231.1148
257.75054
283.97983
309.9138
335.65782
361.31383
386.9825
412.76529
438.76656
465.09576
491.86987
519.2163
547.27619
576.20862
606.19586
637.45016
670.22259
704.81472
741.59442
781.01827
823.66454
870.28266
921.86972
979.7925
1045.9895
1123.3234
1216.308
1332.8497
1488.676
1716.943
2105.4033
-879.70483
-720.05749
-567.34414
-458.58399
-374.05769
-303.18909
-241.72574
-187.32913
-138.42681
-93.884581
-52.860571
-14.713615
21.056561
54.848556
86.986267
117.73771
147.32803
175.94912
203.7671
230.92822
257.5635
283.79247
309.72624
335.47018
361.12622
386.79504
412.5781
438.57974
464.90942
491.68414
519.03129
547.09202
576.02543
606.01378
637.26932
670.04312
704.63672
741.41798
780.84346
823.4914
870.11116
921.69981
979.62402
1045.8222
1123.157
1216.142
1332.6834
1488.5084
1716.7732
2105.2295
-879.79304
-720.17013
-567.46992
-458.7172
-374.19591
-303.33109
-241.87078
-187.47674
-138.57665
-94.036427
-53.014233
-14.868937
20.899724
54.690342
86.826813
117.57716
147.16652
175.78678
203.60408
230.76464
257.3995
283.62815
309.56172
335.30556
360.96162
386.63055
412.41382
438.41577
464.74586
491.52111
518.8689
546.93039
575.86469
605.85406
637.11075
669.88583
704.48083
741.26357
780.69061
823.34013
869.96147
921.55161
979.47719
1045.6765
1123.012
1215.9973
1332.5382
1488.3618
1716.624
2105.0759
-879.85835
-720.26021
-567.57319
-458.82782
-374.31141
-303.45023
-241.99281
-187.60117
-138.70317
-94.164799
-53.144276
-15.000499
20.766779
54.556144
86.691492
117.44084
147.02933
175.64885
203.46553
230.62559
257.26005
283.48841
309.42179
335.16555
360.8216
386.49063
412.27407
438.2763
464.60675
491.38246
518.73082
546.793
575.7281
605.71841
636.97616
669.75241
704.3487
741.13283
780.56132
823.21232
869.83514
921.42668
979.35351
1045.5539
1122.89
1215.8754
1332.4157
1488.2377
1716.4971
2104.9442
-879.90169
-720.32811
-567.65394
-458.9156
-374.40379
-303.54596
-242.09117
-187.7017
-138.80556
-94.268822
-53.249771
-15.107327
20.658743
54.447016
86.581387
117.32987
146.91761
175.53649
203.35262
230.51224
257.14636
283.37447
309.30769
335.05137
360.70743
386.37653
412.16014
438.1626
464.49339
491.26951
518.61837
546.68117
575.617
605.60814
636.86685
669.64418
704.24164
741.02703
780.45684
823.1092
869.73335
921.32617
979.25413
1045.4554
1122.7921
1215.7775
1332.317
1488.1373
1716.3937
2104.8357
-879.92531
-720.37484
-567.71263
-458.98071
-374.47302
-303.61813
-242.1656
-187.77797
-138.88338
-94.348019
-53.330193
-15.188854
20.576217
54.363592
86.497159
117.24493
146.83205
175.4504
203.26608
230.42535
257.05918
283.28709
309.22019
334.96381
360.61989
386.28908
412.07284
438.07553
464.40661
491.1831
518.53242
546.59577
575.53223
605.52412
636.78368
669.56195
704.16045
740.94695
780.37793
823.03149
869.65683
921.25076
979.17971
1045.3817
1122.7188
1215.7042
1332.243
1488.0614
1716.3147
2104.7516
-879.93491
-720.40239
-567.75027
-459.02382
-374.51954
-303.66703
-242.21628
-187.83008
-138.9367
-94.402389
-53.3855
-15.245003
20.519308
54.306
86.438958
117.18619
146.77284
175.39078
203.20614
230.36513
256.99876
283.22652
309.15953
334.90313
360.55925
386.22854
412.01245
438.01535
464.3467
491.12352
518.47324
546.53706
575.47408
605.4666
636.72687
669.50594
704.10531
740.89276
780.32473
822.9793
869.60564
921.20053
979.13031
1045.333
1122.6704
1215.6557
1332.1936
1488.0103
1716.2607
2104.6924
-879.93377
-720.4133
-567.76872
-459.04633
-374.54449
-303.69362
-242.24407
-187.85883
-138.96625
-94.432628
-53.416356
-15.276413
20.4874
54.273645
86.406203
117.15308
146.73942
175.3571
203.17223
230.33105
256.96455
283.19224
309.12521
334.86882
360.525
386.19439
411.97845
437.98154
464.31312
491.09023
518.44028
546.50448
575.44194
605.43496
636.69579
669.47549
704.07555
740.86374
780.29648
822.95185
869.57899
921.17462
979.10505
1045.3082
1122.6459
1215.6311
1332.1684
1487.9836
1716.2314
2104.6585
-879.90315
-720.40425
-567.76645
-459.04648
-374.54585
-303.69575
-242.24676
-187.86193
-138.96971
-94.436398
-53.420395
-15.280687
20.482922
54.268991
86.4014
117.14816
146.73439
175.35199
203.16707
230.32586
256.95937
283.18709
309.12013
334.86385
360.52017
386.18974
411.97402
437.97735
464.30921
491.08662
518.43701
546.50158
575.43945
605.43293
636.69426
669.47449
704.07513
740.86393
780.29733
822.95336
869.58115
921.17739
979.10836
1045.3119
1122.6497
1215.6346
1332.1712
1487.9847
1716.2295
2104.6519
-737.8268
-647.63138
-531.63939
-436.7513
-357.6031
-289.33716
-229.42279
-176.11174
-128.01526
-84.088224
-43.549798
-5.7986735
29.639571
63.146006
95.032076
125.55752
154.94156
183.37149
211.00978
237.9996
264.47013
290.53969
316.31856
341.91111
367.4181
392.93895
418.57399
444.42651
470.6049
497.22494
524.41246
552.30654
581.06339
610.86133
641.90716
674.44453
708.76474
745.22098
784.24813
826.39195
872.35214
923.04721
979.71536
1044.0729
1118.5708
1206.6366
1313.2179
1445.988
1616.9381
1860.9896
-737.85658
-647.64284
-531.65073
-436.76242
-357.61371
-289.34708
-229.43207
-176.12044
-128.02343
-84.095938
-43.556962
-5.8052945
29.633552
63.140536
95.027218
125.55324
154.9378
183.36819
211.00684
237.99712
264.46809
290.53806
316.31724
341.90999
367.41709
392.93802
418.57315
444.42578
470.60431
497.22451
524.41222
552.30649
581.06355
610.86173
641.90781
674.44545
708.76595
745.22251
784.24999
826.39418
872.35475
923.05023
979.71884
1044.0769
1118.5753
1206.6419
1313.2239
1445.995
1616.9464
1861.0003
-737.88948
-647.66571
-531.66932
-436.77868
-357.62838
-289.36049
-229.44441
-176.13186
-128.03402
-84.105718
-43.565881
-5.8132944
29.626486
63.134417
95.022068
125.54906
154.93453
183.36572
211.00514
237.99623
264.46806
290.53882
316.31863
341.91183
367.41925
392.94046
418.57586
444.4288
470.60767
497.22824
524.41633
552.31102
581.06853
610.86717
641.91375
674.45191
708.77298
745.23012
784.25822
826.40304
872.36427
923.06046
979.7298
1044.0886
1118.5879
1206.6554
1313.2384
1446.0106
1616.9633
1861.0194
-737.9316
-647.6968
-531.69608
-436.80256
-357.65008
-289.38043
-229.46283
-176.14895
-128.04989
-84.120386
-43.579285
-5.8253757
29.615752
63.125045
95.014088
125.54248
154.92926
183.3617
211.00231
237.99462
264.46767
290.53958
316.32034
341.9143
367.42234
392.94409
418.58002
444.43351
470.61294
497.2341
524.42281
552.31814
581.07631
610.87565
641.92296
674.46188
708.78374
745.2417
784.27065
826.41634
872.37847
923.07559
979.74591
1044.1058
1118.6062
1206.6748
1313.2589
1446.0324
1616.9866
1861.0449
-737.98161
-647.73635
-531.73103
-436.83426
-357.67923
-289.40743
-229.48796
-176.17239
-128.07173
-84.140641
-43.597905
-5.8423072
29.600537
63.111568
95.002374
125.53253
154.92104
183.35513
210.99737
237.9913
264.46594
290.53934
316.32143
341.91651
367.42553
392.94816
418.58494
444.43925
470.61952
497.24151
524.43107
552.32726
581.08632
610.88656
641.9348
674.47468
708.79751
745.25647
784.28643
826.43315
872.39633
923.0945
979.76592
1044.1269
1118.6285
1206.6983
1313.2837
1446.0585
1617.014
1861.0743
-738.03955
-647.78435
-531.7744
-436.87419
-357.71636
-289.44215
-229.52052
-176.20293
-128.10033
-84.167303
-43.622591
-5.8649705
29.579928
63.093038
94.985949
125.51822
154.90884
183.34499
210.98926
237.98521
264.46182
290.53708
316.32087
341.91748
367.42787
392.95177
418.58974
444.4452
470.62658
497.24968
524.44032
552.3376
581.09773
610.89906
641.9484
674.48939
708.81333
745.27339
784.30444
826.45226
872.41652
923.11578
979.7883
1044.1504
1118.6532
1206.7241
1313.3106
1446.0865
1617.0433
1861.1053
-738.10592
-647.84113
-531.82656
-436.92282
-357.76202
-289.4852
-229.56116
-176.24128
-128.13645
-84.201182
-43.654187
-5.8942379
29.553025
63.068532
94.963871
125.4986
154.89167
183.33027
210.97697
237.97532
264.45428
290.53178
316.31767
341.91622
367.42839
392.95394
418.59346
444.45039
470.63319
497.25765
524.44962
552.34819
581.10959
610.91217
641.96273
674.50491
708.83003
745.29123
784.32339
826.47226
872.43756
923.13783
979.81135
1044.1745
1118.6782
1206.7501
1313.3375
1446.1144
1617.0722
1861.1356
-738.18141
-647.90718
-531.888
-436.98065
-357.81678
-289.53718
-229.61054
-176.28815
-128.18084
-84.243057
-43.693509
-5.9309553
29.518958
63.037158
94.935228
125.47272
154.86859
183.31
210.95951
237.96063
264.44231
290.52243
316.31081
341.91168
367.42603
392.95362
418.59505
444.45379
470.63829
497.26437
524.45789
552.35795
581.12078
610.92472
641.97659
674.52001
708.8463
745.30861
784.3418
826.49164
872.45784
923.15897
979.83329
1044.1972
1118.7017
1206.7743