/*--------------------------------*- C++ -*----------------------------------*\
  =========                 |
  \\      /  F ield         | OpenFOAM: The Open Source CFD Toolbox
   \\    /   O peration     | Website:  https://openfoam.org
    \\  /    A nd           | Version:  12
     \\/     M anipulation  |
\*---------------------------------------------------------------------------*/
FoamFile
{
    format      ascii;
    class       volScalarField;
    location    "2";
    object      p;
}
// * * * * * * * * * * * * * * * * * * * * * * * * * * * * * * * * * * * * * //

dimensions      [0 2 -2 0 0 0 0];

internalField   nonuniform List<scalar> 
226563
(
27872.846
27847.537
27792.464
27701.956
27576.161
27414.171
27214.025
26973.033
26687.903
26354.816
25969.667
25528.51
25028.134
24466.614
23843.938
23161.81
22424.153
21636.225
20803.673
19932.089
19027.112
18094.973
17142.696
16177.581
15207.737
14241.572
13287.738
12354.069
11447.403
10573.217
9735.627
8937.578
8181.0638
7467.3192
6796.8595
6169.5829
5584.8795
5041.7516
4538.8996
4074.7891
3647.7193
3255.8757
2897.3748
2570.2938
2272.6993
2002.6669
1758.3173
1537.8451
1339.5236
1161.704
1002.815
861.3272
735.81893
624.98866
527.57168
442.37398
368.27731
304.23257
249.2691
202.37002
162.66218
129.39489
101.73027
78.892051
60.147052
44.786284
32.123403
21.502763
12.307851
3.9924026
27823.71
27798.711
27744.169
27654.224
27528.841
27366.961
27166.486
26924.601
26637.863
26302.357
25913.982
25468.798
24963.663
24396.726
23767.958
23079.292
22334.597
21539.24
20698.953
19819.399
18906.811
17967.768
17009.654
16040.024
15066.901
14098.975
13144.736
12211.97
11307.347
10436.179
9602.4658
8809.0119
8057.6652
7349.5092
6684.9219
6063.6777
5485.0639
4947.9948
4451.098
3992.7848
3571.3115
3184.8351
2831.4504
2509.2229
2216.2131
1950.4983
1710.2032
1493.5295
1298.7592
1124.254
968.45816
829.86838
707.06561
598.74877
503.67529
420.66872
348.62219
286.49448
233.33174
188.1723
150.11475
118.37612
92.165354
70.723142
53.323564
39.265454
27.870293
18.490346
10.518172
3.401677
27726.295
27701.97
27648.235
27559.134
27434.306
27272.415
27071.136
26827.382
26537.459
26197.261
25802.59
25349.547
24834.988
24257.193
23616.216
22914.189
22155.155
21344.729
20488.805
19593.437
18665.586
17712.773
16742.976
15764.076
14784.369
13812.726
12857.593
11926.549
11025.982
10160.903
9335.0244
8550.8625
7809.9635
7113.0967
6460.359
5851.2764
5284.9241
4760.0415
4275.1159
3828.4489
3418.216
3042.5152
2699.4006
2386.9103
2103.0935
1846.0308
1613.8606
1404.8002
1217.1506
1049.2949
899.69929
766.89305
649.49131
546.21079
455.83764
377.22515
309.2942
251.03075
201.48908
159.74854
124.94232
96.279476
72.994467
54.351905
39.645495
28.192354
19.332122
12.434988
6.9110742
2.207099
27582.169
27558.512
27505.574
27417.25
27292.802
27130.543
26927.817
26681.185
26386.587
26039.614
25635.839
25171.24
24642.692
24048.482
23388.864
22666.221
21884.905
21051.007
20170.915
19251.367
18300.439
17326.766
16339.274
15346.298
14356.674
13379.508
12423.173
11494.956
10600.824
9745.3344
8931.7093
8161.9805
7437.2131
6757.7013
6123.1071
5532.5788
4984.8741
4478.4721
4011.6578
3582.5768
3189.2883
2829.8058
2502.1234
2204.2451
1934.2098
1690.1068
1470.0961
1272.4212
1095.4142
937.49248
797.15646
672.97963
563.62995
467.86165
384.5015
312.44458
250.65163
198.14899
154.01655
117.37372
87.398618
63.319402
44.399382
29.93343
19.244211
11.677262
6.6013255
3.4170193
1.5639148
0.44760861
27392.152
27369.013
27316.673
27228.848
27104.415
26941.284
26736.393
26485.869
26185.196
25829.497
25413.949
24934.252
24387.081
23770.78
23085.707
22334.604
21522.354
20655.826
19742.315
18789.682
17807.341
16805.448
15793.969
14782.049
13779.277
12795.026
11837.56
10913.763
10029.023
9187.2221
8390.8678
7641.2864
6938.8527
6283.2044
5673.4218
5108.1453
4585.7096
4104.2613
3661.827
3256.356
2885.7617
2547.9502
2240.8473
1962.4262
1710.72
1483.8346
1279.9603
1097.3793
934.46978
789.69699
661.61298
548.85395
450.15067
364.313
290.22287
226.83048
173.1502
128.25768
91.272731
61.370652
37.774545
19.749812
6.5979873
-2.3475423
-7.7261714
-10.153228
-10.215881
-8.4802073
-5.5622798
-1.9511479
27156.281
27133.468
27081.469
26993.802
26868.967
26704.44
26496.683
26241.305
25933.224
25566.954
25137.059
24638.743
24068.325
23423.984
22706.24
21918.187
21065.505
20156.255
19199.129
18203.62
17180.861
16142.837
15100.849
14065.111
13046.195
12053.769
11095.9
10178.91
9307.3648
8484.2103
7710.9628
6987.9875
6314.74
5690.0128
5112.1504
4579.1668
4088.885
3639.051
3227.3874
2851.6146
2509.4785
2198.7674
1917.3462
1663.1633
1434.2562
1228.7585
1044.9036
881.03022
735.57471
607.06748
494.13496
395.49408
309.94926
236.38153
173.74318
121.05298
77.391998
41.896649
13.742506
-7.8318099
-23.549886
-34.096779
-40.122649
-42.246881
-41.06136
-37.128286
-30.971903
-23.235586
-14.47477
-4.9401654
26874.009
26851.346
26799.458
26711.644
26586.039
26419.66
26208.438
25947.372
25630.684
25252.104
24805.395
24284.977
23686.583
23008.079
22249.944
21415.759
20512.219
19549.01
18536.839
17487.53
16414.382
15331.742
14252.318
13187.965
12150.357
11149.411
10192.841
9286.1313
8432.7266
7634.2757
6890.982
6201.9601
5565.5031
4979.3644
4441.009
3947.7142
3496.7181
3085.3174
2710.8944
2370.9232
2062.972
1784.7233
1533.9922
1308.7156
1106.9517
926.87795
766.79179
625.1005
500.31846
391.06797
296.06861
214.13075
144.14756
85.087047
35.986374
-4.0541146
-35.872192
-60.261917
-77.974156
-89.702075
-96.105856
-97.810483
-95.40849
-89.463089
-80.509648
-69.048104
-55.567525
-40.756993
-24.994932
-8.4308956
26544.461
26521.802
26469.85
26381.669
26255.032
26086.487
25871.37
25603.978
25277.689
24885.28
24419.443
23873.559
23242.495
22523.458
21716.829
20826.585
19860.681
18830.914
17750.786
16635.333
15500.687
14363.991
13239.898
12142.379
11084.224
10075.475
9123.1933
8231.6489
7402.7107
6636.3285
5931.0039
5284.2712
4693.0049
4153.7435
3662.9271
3217.0173
2812.6202
2446.5517
2115.8407
1817.7078
1549.5588
1308.995
1093.8001
901.9213
731.46034
580.66387
447.90718
331.68902
230.6332
143.47201
69.035127
6.2411348
-45.911773
-88.352991
-121.94625
-147.49526
-165.74815
-177.41932
-183.16652
-183.61044
-179.33874
-170.90691
-158.84113
-143.63963
-125.76932
-105.65944
-83.863923
-60.911113
-37.005005
-12.418488
26166.603
26143.841
26091.712
26003.045
25875.256
25704.403
25485.187
25211.095
24874.528
24467.081
23980.15
23405.728
22737.422
21971.534
21107.916
20150.955
19110.034
17999.547
16836.799
15641.153
14432.43
13231.318
12055.096
10920.287
9840.7118
8826.2601
7882.8779
7013.054
6216.5322
5491.03
4832.9234
4237.8061
3700.8844
3217.3121
2782.4033
2391.7547
2041.3217
1727.4366
1446.7833
1196.3476
973.41082
775.52165
600.46244
446.22042
310.97463
193.05812
90.950139
3.2769812
-71.207814
-133.64443
-185.07552
-226.4579
-258.67226
-282.53098
-298.78514
-308.13132
-311.21486
-308.65659
-301.01713
-288.83346
-272.61197
-252.83058
-229.94081
-204.36739
-176.49838
-146.70786
-115.60128
-83.495428
-50.468235
-16.891357
25739.386
25716.446
25664.087
25574.91
25445.982
25272.867
25049.593
24768.753
24421.623
23998.435
23488.963
22883.469
22173.866
21354.947
20425.776
19390.829
18261.051
17053.999
15792.097
14500.156
13203.234
11926.359
10690.481
9514.9045
8414.35
7398.0454
6470.1105
5630.4876
4876.0635
4201.7298
3601.2451
3067.9186
2595.0665
2176.3281
1805.8348
1478.3074
1189.065
933.98895
709.45235
512.2582
339.60813
189.03806
58.368123
-54.330811
-150.78008
-232.52977
-300.95489
-357.2794
-402.60202
-437.91497
-464.11575
-482.02037
-492.37358
-495.85764
-493.0995
-484.67507
-471.12012
-452.94421
-430.60979
-404.56014
-375.21237
-342.95936
-308.17058
-271.18604
-232.29911
-191.94704
-150.58092
-108.28749
-65.268496
-21.81241
25261.839
25238.674
25186.083
25096.441
24966.503
24791.341
24564.295
24277.012
23919.532
23480.513
22947.852
22309.616
21555.416
20678.017
19674.921
18550.394
17316.915
15995.827
14616.177
13209.499
11808.698
10443.849
9140.858
7922.1105
6802.7736
5790.5915
4886.8473
4087.9338
3387.0139
2775.4509
2243.9074
1783.1044
1384.3011
1039.555
741.82024
484.97812
263.76326
73.671133
-89.170423
-228.06632
-345.84057
-444.91937
-527.39676
-595.07861
-649.56106
-692.22627
-724.27795
-746.77155
-760.63755
-766.70088
-765.69742
-758.28751
-745.06661
-726.57499
-703.30446
-675.70491
-644.19296
-609.1491
-570.93693
-529.89899
-486.35622
-440.60995
-392.94122
-343.59728
-292.77249
-240.99214
-188.48886
-135.16265
-81.319194
-27.150406
24733.169
24709.742
24656.947
24566.932
24436.186
24259.322
24029.009
23735.939
23368.853
22914.704
22359.169
21687.686
20886.939
19946.692
18862.189
17636.694
16284.053
14830.035
13311.648
11769.614
10247.594
8781.9618
7405.1369
6142.3915
5008.6792
4009.044
3140.5581
2394.8079
1760.2306
1223.968
773.13954
395.65825
80.652881
-181.38279
-398.59454
-577.8535
-724.91121
-844.56559
-940.83498
-1017.0561
-1076.0136
-1120.0401
-1151.088
-1170.8098
-1180.6279
-1181.7269
-1175.1185
-1161.6689
-1142.121
-1117.1164
-1087.2151
-1052.9091
-1014.6338
-972.77807
-927.69139
-879.69008
-829.05646
-776.04405
-720.90846
-663.88615
-605.19665
-545.04463
-483.61827
-421.07886
-357.5559
-293.48289
-228.99194
-163.9142
-98.500304
-32.865288
24152.846
24129.124
24076.15
23985.861
23854.524
23676.36
23443.439
23145.553
22770.142
22302.348
21725.426
21021.681
20174.11
19168.611
17996.839
16660.087
15173.018
13566.233
11886.051
10186.533
8524.4043
6945.2998
5488.9639
4183.51
3042.4307
2066.3256
1246.3054
567.67516
13.107586
-435.13479
-793.777
-1077.7992
-1300.154
-1471.7901
-1601.8063
-1697.6815
-1765.5234
-1810.3052
-1836.0765
-1846.1287
-1843.1398
-1829.2941
-1806.3538
-1775.7908
-1738.7994
-1696.3533
-1649.2547
-1598.1625
-1543.6172
-1486.0643
-1425.8775
-1363.3715
-1298.8134
-1232.4336
-1164.4336
-1094.9917
-1024.2456
-952.32252
-879.36388
-805.49579
-730.83242
-655.47722
-579.51589
-502.98764
-426.087
-349.09326
-271.84551
-194.3305
-116.67853
-38.912226
23520.691
23496.63
23443.46
23352.939
23221.17
23042.083
22807.265
22505.729
22123.693
21644.512
21048.826
20315.474
19423.086
18352.454
17090.342
15634.463
13999.247
12220.254
10354.806
8474.9636
6652.6615
4947.8926
3408.2458
2063.9456
925.22018
-14.086759
-770.97696
-1367.9802
-1829.1755
-2177.6122
-2433.9745
-2616.0307
-2738.6176
-2813.9034
-2851.7297
-2859.9976
-2845.0164
-2811.8054
-2764.3486
-2705.8161
-2638.7217
-2565.0531
-2486.3499
-2403.8587
-2318.5335
-2231.1223
-2142.2039
-2052.2189
-1961.4961
-1870.2777
-1778.7449
-1687.0298
-1595.2272
-1503.4055
-1411.6144
-1319.889
-1228.2228
-1136.6138
-1045.0856
-953.65164
-862.31815
-771.08462
-679.92842
-588.75651
-497.88333
-407.34731
-316.75709
-226.21351
-135.73536
-45.251955
22836.96
22812.498
22759.05
22668.224
22536.028
22356.243
22120.13
21816.107
21429.357
20941.545
20330.768
19572.158
18639.36
17507.105
16155.47
14576.715
12783.372
10815.468
8743.0887
6659.8388
4658.0695
2817.5817
1193.4342
-182.9821
-1307.3196
-2195.3316
-2874.4127
-3376.4231
-3732.8498
-3972.2083
-4118.9502
-4193.3201
-4211.7044
-4187.186
-4130.1027
-4048.5811
-3948.9796
-3836.2541
-3714.2508
-3585.9629
-3453.6999
-3319.226
-3183.8476
-3048.5426
-2914.0324
-2780.8346
-2649.2999
-2519.6474
-2391.9918
-2266.3713
-2142.7733
-2021.1474
-1901.4156
-1783.4841
-1667.2503
-1552.6052
-1439.3992
-1327.5006
-1216.8143
-1107.2402
-998.67616
-891.01835
-784.14732
-677.8641
-572.42438
-467.77056
-363.39263
-259.33524
-155.53581
-51.8397
22102.442
22077.486
22023.579
21932.199
21799.331
21618.769
21381.638
21076
20686.279
20192.749
19571.139
18792.965
17826.653
16639.873
15204.564
13505.308
11550.391
9382.9533
7086.841
4779.9834
2584.3723
601.07254
-1105.3518
-2504.7352
-3601.7632
-4424.8553
-5013.9351
-5411.1797
-5655.6829
-5781.1116
-5815.2008
-5780.1729
-5693.5374
-5568.9636
-5417.0502
-5245.9885
-5062.0715
-4870.1301
-4673.8388
-4475.9948
-4278.6931
-4083.472
-3891.3995
-3703.1954
-3519.3554
-3340.1727
-3165.7769
-2996.1721
-2831.265
-2670.8952
-2514.8618
-2362.9362
-2214.8722
-2070.4171
-1929.3196
-1791.328
-1656.1535
-1523.5362
-1393.2637
-1265.1233
-1138.9057
-1014.4044
-891.40313
-769.60172
-649.17829
-529.99081
-411.42893
-293.45907
-175.93828
-58.628367
21318.542
21292.975
21238.305
21145.88
21011.737
20829.842
20591.397
20284.389
19892.837
19396.019
18767.791
17976.415
16985.172
15754.437
14246.902
12437.412
10327.347
7960.4663
5433.8949
2892.8383
495.75676
-1631.4569
-3414.2397
-4826.3811
-5885.0843
-6633.9696
-7126.8069
-7416.2624
-7548.4927
-7561.5645
-7485.7617
-7344.6958
-7156.5876
-6935.4268
-6691.9205
-6434.2433
-6168.5915
-5899.6699
-5631.0061
-5365.2281
-5104.245
-4849.3975
-4601.5339
-4361.155
-4128.5517
-3903.8126
-3686.8647
-3477.5134
-3275.4721
-3080.3946
-2891.9031
-2709.601
-2533.0823
-2361.9435
-2195.7905
-2034.2348
-1876.8533
-1723.2625
-1573.136
-1426.1516
-1281.9951
-1140.3596
-1000.9327
-863.31565
-727.60486
-593.58035
-460.53256
-328.34724
-196.80064
-65.570631
20487.361
20461.078
20405.208
20310.94
20174.481
19990.073
19749.219
19440.117
19046.762
18547.979
17916.344
17117.577
16110.556
14848.778
13285.584
11385.022
9138.9763
6588.5851
3841.9253
1072.1599
-1523.0223
-3785.6298
-5634.8395
-7051.2961
-8066.8621
-8740.9838
-9141.2701
-9329.8002
-9358.5296
-9268.8116
-9092.6801
-8854.6277
-8573.3149
-8262.9467
-7934.3307
-7595.6704
-7253.1416
-6911.3983
-6573.91
-6243.2164
-5921.1103
-5608.7904
-5306.9426
-5015.9017
-4735.793
-4466.5349
-4207.8816
-3959.4662
-3720.8319
-3491.4663
-3270.8323
-3058.3802
-2853.5581
-2655.8229
-2464.6479
-2279.5145
-2099.8743
-1925.2266
-1755.1364
-1589.1769
-1426.9325
-1267.9994
-1111.9716
-958.35366
-807.16226
-658.1024
-510.36666
-363.76058
-217.97971
-72.618776
19611.688
19584.763
19527.146
19429.922
19289.599
19100.775
18855.464
18542.314
18145.676
17644.439
17010.665
16208.521
15193.657
13914.188
12315.348
10350.758
8001.6363
5303.3304
2370.5609
-599.40076
-3369.9826
-5750.1944
-7654.1725
-9071.2637
-10048.272
-10659.759
-10984.228
-11090.609
-11034.824
-10860.344
-10600.325
-10279.892
-9918.1345
-9529.594
-9125.3521
-8713.8223
-8301.346
-7892.6931
-7491.4209
-7100.1107
-6720.5476
-6353.8674
-6000.6789
-5661.2212
-5335.5093
-5023.3382
-4724.3301
-4437.9809
-4163.6939
-3900.817
-3648.676
-3406.5886
-3173.8743
-2949.8668
-2733.9201
-2525.3915
-2323.6201
-2127.9976
-1937.9875
-1753.0641
-1572.7162
-1396.4473
-1223.7613
-1054.0679
-887.30946
-723.11887
-560.5939
-399.45959
-239.33212
-79.724959
18694.628
18667.552
18607.594
18506.093
18359.958
18164.227
17911.482
17591.02
17187.876
16681.505
16044.209
15239.713
14222.141
12936.355
11322.22
9325.3784
6917.4201
4126.3986
1068.1531
-2044.4134
-4945.015
-7416.6262
-9365.4788
-10788.836
-11745.323
-12320.244
-12598.053
-12651.457
-12538.45
-12303.744
-11981.363
-11597.155
-11170.903
-10717.809
-10249.558
-9775.0677
-9301.097
-8832.7573
-8373.8806
-7927.2495
-7494.7787
-7077.6343
-6676.4402
-6291.4256
-5922.5615
-5569.5746
-5232.0023
-4909.245
-4600.6025
-4305.3145
-4022.5956
-3751.6531
-3491.699
-3241.963
-3001.7015
-2770.1459
-2546.5396
-2330.1819
-2120.4421
-1916.7028
-1718.3638
-1524.8423
-1335.5569
-1149.8319
-967.51178
-788.18787
-610.87881
-435.20702
-260.71571
-86.841841
17738.33
17711.195
17648.078
17540.756
17386.549
17180.966
16917.109
16585.063
16170.781
15654.676
15009.981
14201.109
13182.376
11898.109
10286.37
8288.8586
5871.334
3055.8369
-45.258986
-3216.5121
-6180.9154
-8707.9656
-10694.816
-12141.529
-13109.284
-13684.921
-13954.025
-13990.021
-13851.632
-13584.426
-13223.463
-12795.726
-12322.16
-11819.09
-11299.217
-10772.328
-10245.882
-9725.5756
-9215.713
-8719.4487
-8238.9779
-7775.6105
-7330.0621
-6902.6403
-6493.343
-6101.887
-5727.7752
-5370.3547
-5028.8594
-4702.4535
-4390.2694
-4091.4262
-3805.0474
-3530.2769
-3266.3034
-3012.243
-2767.2337
-2530.5082
-2301.3506
-2079.0598
-1862.9539
-1652.3709
-1446.6564
-1245.127
-1047.346
-852.83108
-660.88888
-470.77375
-281.99246
-93.923087
16744.855
16716.527
16648.988
16533.927
16368.962
16150.033
15870.817
15522.177
15091.068
14559.146
13901.126
13083.116
12061.3
10781.978
9184.9874
7213.0181
4831.9845
2061.7229
-992.06017
-4125.8071
-7074.7838
-9612.3174
-11629.282
-13118.798
-14132.309
-14748.701
-15048.903
-15104.125
-14972.647
-14700.789
-14324.995
-13873.892
-13370.108
-12831.558
-12272.377
-11703.588
-11133.645
-10569.062
-10014.811
-9474.5836
-8950.9973
-8445.6469
-7959.415
-7492.7622
-7045.7828
-6618.2446
-6209.666
-5819.3841
-5446.6022
-5090.44
-4749.9754
-4424.2641
-4112.3591
-3813.3333
-3526.3225
-3250.3721
-2984.4949
-2727.865
-2479.6948
-2239.2091
-2005.6514
-1778.2868
-1556.3975
-1339.2742
-1126.1899
-916.74559
-710.337
-505.94011
-303.02879
-100.92389
15719.294
15688.453
15615.055
15490.142
15311.509
15075.434
14776.149
14405.233
13950.659
13395.49
12716.35
11881.879
10851.595
9576.0726
8000.2925
6072.9489
3764.9577
1096.6851
-1834.371
-4845.4368
-7703.0633
-10202.648
-12232.712
-13771.841
-14852.928
-15539.262
-15901.627
-16005.934
-15908.652
-15656.386
-15286.986
-14830.963
-14312.926
-13752.685
-13166.093
-12565.673
-11961.118
-11359.951
-10767.972
-10189.544
-9627.8294
-9084.8397
-8561.7186
-8059.1383
-7577.3546
-7116.2446
-6675.3932
-6254.1705
-5851.7867
-5467.3475
-5099.9024
-4748.4677
-4412.0473
-4089.6579
-3780.3796
-3483.2372
-3197.1326
-2921.1629
-2654.482
-2396.2514
-2145.6484
-1901.8703
-1664.1317
-1431.6464
-1203.6111
-979.58211
-758.91005
-540.48269
-323.69315
-107.80083
14669.893
14635.738
14555.208
14418.488
14223.467
13966.656
13642.719
13243.9
12759.187
12173.153
11464.63
10605.44
9559.5885
8283.803
6731.036
4859.157
2646.9104
116.3279
-2644.7299
-5477.6158
-8188.6884
-10605.855
-12621.175
-14197.746
-15347.008
-16112.738
-16551.884
-16722.329
-16676.928
-16461.512
-16114.755
-15668.785
-15150.093
-14580.384
-13977.29
-13354.92
-12724.328
-12094.154
-11471.123
-10860.362
-10265.657
-9689.5445
-9133.5199
-8598.5175
-8085.0088
-7593.0345
-7122.294
-6672.232
-6242.1034
-5831.0309
-5438.0625
-5062.1992
-4702.4173
-4357.694
-4027.0494
-3709.5135
-3403.9337
-3109.2981
-2824.7126
-2549.2878
-2282.1429
-2022.4148
-1769.258
-1521.831
-1279.3036
-1041.0262
-806.27393
-574.20731
-343.87914
-114.51947
13606.5
13568.458
13479.777
13329.647
13115.98
12835.454
12483.082
12051.729
11531.391
10908.23
10163.517
9272.7052
8205.0383
6924.4828
5393.3016
3579.8665
1471.8639
-906.19759
-3477.1465
-6108.2155
-8644.0785
-10945.331
-12913.749
-14501.278
-15700.566
-16536.143
-17049.826
-17289.607
-17302.938
-17133.416
-16819.467
-16394.084
-15885.143
-15315.936
-14705.683
-14069.986
-13421.235
-12769.197
-12121.544
-11484.202
-10861.614
-10256.914
-9672.0367
-9108.2174
-8566.1799
-8046.1748
-7548.0586
-7071.3895
-6615.5017
-6179.5664
-5762.6555
-5363.778
-4981.9036
-4615.9881
-4265.0043
-3927.9747
-3603.7589
-3291.2294
-2989.4427
-2697.4676
-2414.3743
-2139.2472
-1871.1882
-1609.3139
-1352.7489
-1100.6026
-852.24623
-606.93944
-363.4758
-121.04307
12540.089
12497.773
12400.249
12235.581
12001.679
11695.35
11311.926
10844.879
10285.239
9620.836
8835.5419
7908.7028
6815.1532
5526.4649
4014.4203
2257.7541
252.63831
-1974.515
-4356.5721
-6785.3703
-9138.1156
-11303.868
-13197.113
-14764.722
-15986.105
-16869.833
-17443.556
-17744.819
-17814.415
-17692.319
-17415.456
-17016.677
-16524.489
-15963.217
-15353.285
-14711.529
-14051.526
-13384.087
-12717.779
-12059.304
-11413.768
-10784.904
-10175.169
-9586.1335
-9018.796
-8473.649
-7950.7412
-7449.7772
-6970.2015
-6511.263
-6072.0818
-5651.6964
-5249.0892
-4863.2115
-4493.0148
-4137.4979
-3795.558
-3465.9927
-3147.7944
-2839.9971
-2541.6312
-2251.7357
-1969.365
-1693.5875
-1423.4745
-1158.1036
-896.69445
-638.42738
-382.35307
-127.33208
11482.416
11435.628
11328.892
11149.098
10894.147
10560.972
10145.236
9641.0492
9040.5231
8333.2367
7505.7583
6541.4133
5420.6301
4122.3713
2627.338
923.54224
-985.72733
-3072.9649
-5280.0636
-7519.4046
-9694.4316
-11717.737
-13516.178
-15036.811
-16251.649
-17157.801
-17771.203
-18119.629
-18236.786
-18158.073
-17917.838
-17547.79
-17076.237
-16527.877
-15923.837
-15281.823
-14616.357
-13939.137
-13259.517
-12584.909
-11921.051
-11272.244
-10641.486
-10030.735
-9441.2782
-8873.8656
-8328.7626
-7805.8465
-7304.6979
-6824.6685
-6364.9493
-5924.6283
-5502.7185
-5098.1834
-4709.9718
-4337.0555
-3978.3731
-3632.7056
-3298.9598
-2976.143
-2663.2543
-2359.2945
-2063.2762
-1774.2258
-1491.18
-1213.1779
-939.22929
-668.5901
-400.4314
-133.35644
10445.55
10394.268
10278.298
10083.348
9807.3329
9447.3375
8999.4039
8458.3358
7817.3927
7067.9613
6199.3314
5198.736
4051.9275
2744.648
1265.4428
-389.91667
-2212.6144
-4174.8189
-6226.0585
-8294.9358
-10305.427
-12188.483
-13881.942
-15336.403
-16521.113
-17426.029
-18058.35
-18437.571
-18590.648
-18548.036
-18340.803
-17998.724
-17549.171
-17016.576
-16422.245
-15784.349
-15118.054
-14435.749
-13747.443
-13061.154
-12383.182
-11718.351
-11070.173
-10441.03
-9832.5159
-9245.6401
-8680.8976
-8138.3564
-7617.753
-7118.5638
-6640.0691
-6181.424
-5741.6896
-5319.8552
-4914.8811
-4525.7288
-4151.3514
-3790.562
-3442.1978
-3105.2321
-2778.6375
-2461.3835
-2152.4473
-1850.8178
-1555.4925
-1265.4661
-979.72996
-697.39948
-417.54941
-139.06278
9441.4913
9385.8559
9260.9402
9051.3249
8754.9648
8369.152
7890.3684
7314.1761
6635.0419
5846.185
4939.5652
3906.1213
2736.4697
1422.2997
-41.262071
-1652.2689
-3397.8542
-5250.4073
-7165.7188
-9084.8512
-10947.469
-12698.374
-14284.707
-15662.249
-16800.546
-17685.817
-18319.323
-18714.089
-18891.164
-18876.2
-18696.702
-18380.02
-17952.034
-17436.382
-16854.088
-16223.402
-15559.815
-14876.204
-14183.079
-13488.944
-12800.579
-12123.264
-11460.973
-10816.523
-10191.831
-9588.168
-9006.2552
-8446.3584
-7908.3841
-7391.9533
-6896.4503
-6421.1069
-5965.0481
-5527.304
-5106.8573
-4702.6801
-4313.7254
-3938.8394
-3576.8396
-3226.6538
-2887.2284
-2557.5088
-2236.4437
-1922.9895
-1616.1111
-1314.7793
-1017.9673
-724.63165
-433.79174
-144.39721
8481.8067
8422.0944
8288.7872
8065.43
7750.0597
7340.2325
6832.9324
6224.5352
5510.7475
4686.6045
3746.6124
2685.1153
1497.0241
179.06201
-1268.3208
-2838.4494
-4515.6296
-6272.8184
-8070.8584
-9860.2931
-11592.583
-13222.766
-14705.681
-16002.732
-17085.489
-17938.794
-18560.248
-18958.143
-19148.697
-19153.247
-18995.788
-18701.041
-18293.068
-17794.334
-17225.221
-16603.734
-15945.418
-15263.414
-14568.582
-13869.8
-13174.23
-12487.545
-11814.114
-11157.158
-10518.936
-9900.9831
-9304.2425
-8729.1706
-8175.8463
-7644.0476
-7133.281
-6642.8666
-6171.997
-5719.7538
-5285.1548
-4867.1844
-4464.8035
-4076.8948
-3702.2862
-3339.8577
-2988.5267
-2647.2215
-2314.8686
-1990.3968
-1672.7411
-1360.8417
-1053.641
-750.0729
-449.02889
-149.4856
7577.3059
7513.9041
7372.9639
7137.1139
6804.5249
6373.064
5840.2646
5203.3493
4459.2663
3604.8028
2636.8283
1552.7264
351.08799
-967.22528
-2397.5847
-3929.8037
-5546.3101
-7220.8217
-8918.2396
-10596.326
-12215.339
-13737.753
-15124.712
-16342.998
-17366.96
-18181.528
-18782.303
-19174.315
-19370.03
-19387.124
-19246.375
-18969.892
-18579.794
-18097.165
-17541.494
-16930.3
-16278.969
-15600.698
-14906.55
-14205.685
-13505.565
-12812.175
-12130.211
-11463.256
-10813.884
-10183.92
-9574.5308
-8986.3427
-8419.6077
-7874.2578
-7349.9298
-6846.0445
-6361.8673
-5896.5406
-5449.1221
-5018.6152
-4603.9885
-4204.1628
-3818.0008
-3444.3469
-3082.0804
-2730.1156
-2387.3624
-2052.7274
-1725.1192
-1403.4495
-1086.629
-773.56038
-463.12176
-154.21302
6737.8164
6671.1864
6523.5084
6276.6327
5928.9008
5478.5293
4923.623
4262.2614
3492.6025
2613.0758
1622.6835
521.44845
-688.96455
-2004.3754
-3416.9539
-4913.9759
-6476.6919
-8079.671
-9691.0712
-11274.231
-12795.914
-14223.861
-15524.432
-16669.173
-17635.379
-18408.86
-18984.331
-19364.691
-19559.609
-19583.786
-19455.196
-19193.523
-18818.963
-18351.152
-17808.56
-17208.058
-16564.705
-15891.589
-15199.861
-14498.879
-13796.329
-13098.437
-12410.163
-11735.397
-11077.011
-10437.084
-9817.0239
-9217.6312
-8639.3132
-8082.1476
-7545.9055
-7030.1117
-6534.1102
-6057.106
-5598.2012
-5156.4265
-4730.7639
-4320.1595
-3923.5165
-3539.6768
-3167.4828
-2805.8258
-2453.6013
-2109.6995
-1773.0077
-1442.4122
-1116.7965
-795.03345
-475.96561
-158.48248
5972.0194
5902.6646
5749.2151
5492.8826
5132.2061
4665.7706
4092.2564
3410.5821
2620.0483
1720.5771
713.04276
-400.29988
-1615.2754
-2925.0962
-4319.5307
-5784.0673
-7299.2843
-8840.6194
-10378.839
-11881.731
-13320.68
-14667.13
-15891.842
-16970.325
-17882.668
-18615.918
-19164.585
-19530.25
-19720.556
-19747.862
-19627.798
-19377.907
-19016.577
-18562.049
-18031.742
-17441.801
-16806.818
-16139.68
-15451.531
-14751.84
-14048.464
-13347.813
-12655.078
-11974.376
-11308.84
-10660.772
-10031.804
-9422.9501
-8834.7543
-8267.4214
-7720.8453
-7194.655
-6688.2815
-6200.9895
-5731.925
-5280.1531
-4844.6777
-4424.4612
-4018.4326
-3625.4604
-3244.3741
-2874.0268
-2513.2953
-2161.0597
-1816.1908
-1477.5542
-1144.0103
-814.40974
-487.5655
-162.34332
5287.3841
5215.8171
5057.5726
4793.3567
4421.9185
3942.2156
3353.4896
2655.4497
1848.4375
933.6923
-86.315712
-1207.4866
-2423.6371
-3725.9714
-5102.4902
-6537.46
-8011.1381
-9499.8035
-10976.329
-12412.032
-13781.421
-15058.754
-16218.389
-17238.944
-18103.049
-18799.067
-19321.683
-19671.705
-19855.345
-19883.158
-19768.872
-19528.221
-19177.966
-18735.067
-18215.948
-17636.002
-17009.301
-16348.46
-15664.544
-14967.061
-14263.985
-13561.902
-12866.182
-12181.101
-11509.992
-10855.389
-10219.112
-9602.366
-9005.8507
-8429.8926
-7874.4872
-7339.3549
-6824.0247
-6327.8156
-5849.9064
-5389.4028
-4945.3385
-4516.6906
-4102.3999
-3701.37
-3312.4414
-2934.4289
-2566.1846
-2206.5802
-1854.4734
-1508.7115
-1168.1376
-831.58958
-497.79393
-165.68445
4690.1274
4616.8472
4454.748
4184.1549
3804.0282
3313.6848
2712.892
2002.0752
1182.4899
256.50142
-772.09505
-1897.7114
-3112.5932
-4406.4318
-5765.9503
-7174.6088
-8612.5775
-10056.918
-11482.211
-12862.447
-14174.256
-15394.137
-16499.228
-17470.585
-18293.023
-18956.136
-19454.963
-19789.9
-19966.158
-19992.938
-19882.459
-19648.961
-19307.817
-18874.863
-18365.609
-17794.743
-17175.83
-16521.182
-15841.719
-15146.931
-14444.892
-13742.33
-13044.72
-12356.478
-11681.135
-11021.397
-10379.242
-9756.0334
-9152.6249
-8569.4708
-8006.6537
-7463.9645
-6941.0541
-6437.2815
-5951.8258
-5483.845
-5032.4102
-4596.5154
-4175.1078
-3767.1319
-3371.4244
-2986.774
-2612.035
-2246.0563
-1887.677
-1535.7226
-1188.9672
-846.33183
-506.64105
-168.63102
4185.2731
4110.7423
3945.6622
3670.0858
3283.1754
2784.5746
2174.52
1454.0607
625.22295
-308.69953
-1342.8425
-2470.4502
-3682.5734
-4967.7876
-6311.9141
-7697.9038
-9105.9836
-10513.912
-11897.627
-13233.075
-14498.354
-15671.677
-16732.305
-17663.201
-18450.959
-19086.241
-19564.493
-19885.912
-20055.031
-20080.044
-19972.013
-19743.98
-19410.169
-18985.481
-18484.614
-17921.645
-17309.694
-16660.77
-15985.602
-15293.656
-14593.065
-13890.604
-13191.864
-12501.419
-11822.935
-11159.251
-10512.48
-9884.1106
-9275.1251
-8686.1198
-8117.2328
-7568.1511
-7038.7893
-6528.8445
-6037.1297
-5562.9237
-5105.3441
-4663.3977
-4236.0346
-3822.3759
-3421.1287
-3030.8293
-2650.6341
-2279.3042
-1915.6379
-1558.4026
-1206.434
-858.79494
-514.15137
-171.19282
3776.7252
3701.3598
3534.0884
3254.7865
2862.7973
2358.0436
1741.1616
1013.7162
178.34966
-760.90955
-1798.3679
-2926.3875
-4135.1399
-5412.3985
-6743.3711
-8110.717
-9494.7797
-10873.905
-12225.095
-13525.664
-14754.685
-15891.646
-16917.4
-17816.373
-18576.537
-19189.429
-19650.874
-19960.991
-20123.854
-20146.936
-20040.432
-19816.47
-19488.388
-19070.299
-18576.251
-18019.809
-17413.726
-16769.743
-16098.411
-15409.161
-14710.101
-14008.031
-13308.685
-12616.751
-11935.998
-11269.373
-10619.083
-9986.7056
-9373.1869
-8779.3994
-8205.8663
-7651.8905
-7117.4985
-6602.5096
-6105.7902
-5626.6219
-5164.1309
-4717.3367
-4285.2039
-3866.8598
-3461.011
-3066.1901
-2681.7156
-2306.1131
-1938.049
-1576.6868
-1220.6857
-869.01997
-520.24531
-173.22071
3467.3949
3391.5577
3222.7914
2940.8768
2545.3095
2036.235
1414.6064
682.38204
-157.33457
-1099.9701
-2139.2257
-3266.8339
-4472.3509
-5743.001
-7063.6011
-8416.6595
-9782.6411
-11140.36
-12467.621
-13742.637
-14945.06
-16055.27
-17055.283
-17930.594
-18670.189
-19266.269
-19714.97
-20016.384
-20174.287
-20195.654
-20090.063
-19868.986
-19545.14
-19132.006
-18643.144
-18091.729
-17490.223
-16850.143
-16181.953
-15494.967
-14797.253
-14095.678
-13396.051
-12703.144
-12020.813
-11352.094
-10699.237
-10063.749
-9446.8733
-8849.8072
-8272.7233
-7715.2348
-7177.2648
-6658.3737
-6157.8785
-5674.99
-5208.8103
-4758.3707
-4322.6523
-3900.6145
-3491.1041
-3092.9426
-2705.1581
-2326.2994
-1955.0315
-1590.6046
-1231.57
-876.73345
-524.85547
-174.75646
3259.3312
3183.3015
3013.6337
2730.083
2332.2588
1820.4636
1195.8698
460.69915
-381.63683
-1326.2045
-2366.3104
-3493.2815
-4696.2836
-5962.2035
-7275.6328
-8619.0078
-9972.8961
-11316.442
-12628.016
-13886.354
-15071.363
-16163.978
-17147.007
-18006.66
-18732.596
-19317.461
-19757.608
-20053.127
-20207.612
-20227.726
-20122.648
-19903.432
-19582.396
-19172.583
-18687.218
-18139.23
-17540.849
-16903.478
-16237.522
-15552.168
-14855.443
-14154.287
-13454.548
-12761.046
-12077.696
-11407.619
-10752.889
-10115.269
-9496.6064
-8897.5429
-8317.968
-7758.0146
-7217.5178
-6696.0611
-6193.0266
-5707.6357
-5238.9756
-4786.0763
-4347.9333
-3923.4868
-3511.6184
-3111.1777
-2721.0146
-2339.9077
-1966.6493
-1600.0523
-1238.8955
-881.95148
-527.98526
-175.80169
3153.6785
3077.621
2907.5544
2623.2376
2224.3442
1711.2551
1085.2578
348.70766
-494.83178
-1440.248
-2480.6512
-3607.1689
-4808.7762
-6072.2018
-7381.9364
-8720.3881
-10068.184
-11404.638
-12708.389
-13958.382
-15134.635
-16218.409
-17192.929
-18044.757
-18763.878
-19343.156
-19779.049
-20071.648
-20224.457
-20243.983
-20139.207
-19920.973
-19601.394
-19193.306
-18709.747
-18163.515
-17566.758
-16930.88
-16266.15
-15581.637
-14885.418
-14184.475
-13484.676
-12790.857
-12106.897
-11435.862
-10779.917
-10141.679
-9522.3746
-8922.0514
-8341.1989
-7779.9578
-7238.1513
-6715.3781
-6211.0357
-5724.3522
-5254.4129
-4800.2454
-4360.8538
-3935.1784
-3522.1085
-3120.4961
-2729.1659
-2346.9201