/*--------------------------------*- C++ -*----------------------------------*\
  =========                 |
  \\      /  F ield         | OpenFOAM: The Open Source CFD Toolbox
   \\    /   O peration     | Website:  https://openfoam.org
    \\  /    A nd           | Version:  12
     \\/     M anipulation  |
\*---------------------------------------------------------------------------*/
FoamFile
{
    format      ascii;
    class       volScalarField;
    location    "1";
    object      p;
}
// * * * * * * * * * * * * * * * * * * * * * * * * * * * * * * * * * * * * * //

dimensions      [0 2 -2 0 0 0 0];

internalField   nonuniform List<scalar> 
364563
(
-177.87665
-120.54627
-89.710608
-69.668725
-54.903962
-43.15405
-33.337706
-24.864938
-17.378637
-10.645213
-4.5027579
1.1660339
6.4491907
11.414702
16.116385
20.597766
24.894744
29.037474
33.051734
36.959944
40.781945
44.535603
48.237307
51.902368
55.545372
59.180486
62.821753
66.483368
70.179969
73.926948
77.740798
81.639514
85.643086
89.774103
94.058528
98.526717
103.21478
108.16645
113.43578
119.09096
125.22025
131.94114
139.41576
147.87787
157.68474
169.42652
184.18463
204.22143
235.05367
292.38237
-177.87191
-120.54153
-89.705871
-69.663981
-54.899209
-43.149285
-33.332927
-24.860143
-17.373824
-10.640381
-4.4979062
1.1709062
6.454084
11.419617
16.121321
20.602723
24.899721
29.042471
33.05675
36.964978
40.786994
44.540666
48.242381
51.907451
55.550462
59.185581
62.826851
66.488466
70.185065
73.932041
77.745884
81.644592
85.648155
89.77916
94.063573
98.531748
103.21979
108.17145
113.44076
119.09593
125.2252
131.94609
139.42069
147.88278
157.68964
169.43142
184.18951
204.22631
235.05855
292.38724
-177.86245
-120.53206
-89.696391
-69.654487
-54.889696
-43.139748
-33.323361
-24.850545
-17.364192
-10.630711
-4.4881968
1.1806565
6.4638763
11.429451
16.131198
20.612641
24.909681
29.05247
33.066786
36.975048
40.797094
44.550794
48.252532
51.917621
55.560645
59.195774
62.837049
66.498665
70.19526
73.942228
77.756059
81.654751
85.658295
89.789278
94.073666
98.541813
103.22983
108.18146
113.45074
119.10588
125.23512
131.95597
139.43055
147.89261
157.69946
169.44121
184.19929
204.23608
235.0683
292.39699
-177.84831
-120.51792
-89.682231
-69.640305
-54.875485
-43.125502
-33.309074
-24.836211
-17.349806
-10.616269
-4.4736963
1.195218
6.4785
11.444138
16.145947
20.627453
24.924553
29.0674
33.081771
36.990083
40.812176
44.565915
48.267687
51.932804
55.575849
59.210992
62.852274
66.513891
70.210481
73.957436
77.77125
81.669919
85.673433
89.804383
94.088733
98.55684
103.24481
108.1964
113.46563
119.12072
125.24992
131.97073
139.44527
147.9073
157.7141
169.45583
184.21389
204.25065
235.08287
292.41155
-177.82959
-120.49918
-89.663478
-69.621523
-54.856665
-43.106635
-33.290153
-24.817228
-17.330756
-10.597146
-4.4544963
1.2144979
6.4978619
11.463583
16.165475
20.647062
24.944241
29.087165
33.101607
37.009986
40.832138
44.58593
48.287746
51.952899
55.595972
59.231134
62.872426
66.534043
70.230625
73.977565
77.791354
81.689992
85.693468
89.824373
94.108674
98.576727
103.26464
108.21617
113.48534
119.14037
125.26951
131.99027
139.46475
147.92673
157.73349
169.47518
184.23321
204.26995
235.10215
292.43082
-177.80639
-120.47597
-89.640245
-69.598254
-54.833349
-43.083263
-33.266714
-24.793715
-17.307159
-10.573461
-4.4307163
1.2383761
6.5218408
11.487664
16.189657
20.671344
24.968621
29.111637
33.126168
37.034627
40.856853
44.610708
48.31258
51.977777
55.620883
59.256067
62.897371
66.558989
70.255561
74.00248
77.81624
81.714839
85.718267
89.849118
94.133357
98.601343
103.28919
108.24064
113.50974
119.1647
125.29376
132.01445
139.48886
147.95079
157.7575
169.49914
184.25713
204.29384
235.12602
292.45468
-177.77886
-120.44843
-89.612671
-69.570639
-54.80568
-43.055527
-33.2389
-24.765813
-17.27916
-10.545357
-4.4025024
1.2667051
6.5502877
11.51623
16.218342
20.700147
24.997538
29.140663
33.155296
37.06385
40.886161
44.640092
48.342027
52.007275
55.650421
59.285631
62.926947
66.588566
70.285126
74.032021
77.845745
81.744297
85.747669
89.878455
94.162621
98.630528
103.31829
108.26966
113.53867
119.19354
125.32252
132.04312
139.51746
147.97931
157.78596
169.52755
184.28549
204.32217
235.15433
292.48298
-177.74716
-120.41671
-89.580922
-69.538843
-54.773822
-43.023593
-33.206878
-24.733691
-17.246929
-10.513007
-4.3700273
1.2993107
6.5830272
11.549105
16.251353
20.73329
25.03081
29.174059
33.188808
37.097469
40.919877
44.673892
48.375899
52.041205
55.684395
59.319634
62.960965
66.622583
70.319129
74.065996
77.879678
81.778176
85.781483
89.912194
94.196277
98.664093
103.35176
108.30303
113.57194
119.22671
125.35559
132.0761
139.55035
148.01212
157.8187
169.56023
184.31812
204.35476
235.18689
292.51553
-177.71147
-120.38101
-89.545186
-69.503054
-54.737965
-42.987653
-33.17084
-24.697543
-17.210659
-10.476607
-4.3334881
1.3359942
6.6198588
11.586086
16.288483
20.770568
25.06823
29.211616
33.226493
37.135272
40.957786
44.711895
48.413981
52.079351
55.722588
59.35786
62.999206
66.660822
70.357351
74.104185
77.91782
81.816257
85.819491
89.950117
94.234107
98.701823
103.38938
108.34054
113.60934
119.264
125.39277
132.11318
139.58733
148.04901
157.85551
169.59697
184.3548
204.3914
235.2235
292.55212
-177.67202
-120.34153
-89.505673
-69.463485
-54.698321
-42.947919
-33.131001
-24.657584
-17.170568
-10.436374
-4.2931051
1.3765336
6.6605587
11.626948
16.329507
20.811751
25.109568
29.2531
33.268116
37.177023
40.999651
44.753861
48.456032
52.121471
55.764759
59.400064
63.041425
66.703039
70.399548
74.146345
77.959928
81.858297
85.86145
89.991984
94.27587
98.743475
103.43092
108.38195
113.65063
119.30517
125.43382
132.15412
139.62816
148.08975
157.89616
169.63754
184.39531
204.43186
235.26393
292.59254
-177.62902
-120.29852
-89.462613
-69.420365
-54.655123
-42.904624
-33.087593
-24.614049
-17.126894
-10.392548
-4.2491195
1.4206857
6.7048815
11.671444
16.374175
20.856588
25.154568
29.298257
33.31342
37.222462
41.045212
44.799528
48.501789
52.1673
55.810641
59.44598
63.087357
66.748967
70.445453
74.192209
78.005734
81.90403
85.907094
90.037527
94.321303
98.788787
103.4761
108.42701
113.69556
119.34996
125.47849
132.19866
139.67259
148.13407
157.94039
169.68169
184.43939
204.47589
235.30793
292.63652
-177.58273
-120.2522
-89.416255
-69.373944
-54.60862
-42.85802
-33.040872
-24.567194
-17.079892
-10.345388
-4.2017915
1.4681882
6.7525628
11.719306
16.422217
20.904807
25.202959
29.346812
33.362127
37.271311
41.094187
44.848614
48.550968
52.216553
55.859949
59.495323
63.136713
66.798318
70.494778
74.241489
78.054951
81.953167
85.956138
90.086463
94.370119
98.837477
103.52466
108.47543
113.74383
119.3981
125.52649
132.24653
139.72034
148.18171
157.98793
169.72914
184.48678
204.52322
235.35522
292.68379
-177.5334
-120.20285
-89.366865
-69.324489
-54.559079
-42.808375
-32.991105
-24.51729
-17.029835
-10.295168
-4.151398
1.5187619
6.8033213
11.770251
16.473348
20.956121
25.254449
29.39847
33.413944
37.323272
41.146278
44.900818
48.603267
52.268927
55.912379
59.547786
63.18919
66.850786
70.547217
74.29388
78.107274
82.005406
86.008276
90.138487
94.422019
98.889242
103.57628
108.52691
113.79517
119.44929
125.57754
132.29744
139.77113
148.23238
158.03849
169.77961
184.53718
204.57357
235.40553
292.73408
-177.48132
-120.15075
-89.314721
-69.272278
-54.506782
-42.755971
-32.938576
-24.46462
-16.977011
-10.242177
-4.0982302
1.5721136
6.8568612
11.823981
16.527267
21.010225
25.308734
29.452926
33.468559
37.378034
41.201171
44.955825
48.658369
52.324105
55.967611
59.603051
63.244466
66.906051
70.60245
74.34906
78.162383
82.060426
86.063191
90.193283
94.476684
98.943767
103.63066
108.58114
113.84924
119.50322
125.63132
132.35108
139.82463
148.28576
158.09177
169.8328
184.59029
204.62662
235.45854
292.78707
-177.42678
-120.09619
-89.260112
-69.217603
-54.452019
-42.701101
-32.883581
-24.409483
-16.921718
-10.186715
-4.0425909
1.6279378
6.9128749
11.880186
16.583662
21.066807
25.365495
29.509858
33.525652
37.435273
41.258541
45.013308
48.715946
52.381756
56.025315
59.660785
63.302208
66.963779
70.660143
74.406698
78.219945
82.117895
86.120551
90.25052
94.533786
99.000726
103.68747
108.63779
113.90574
119.55956
125.68751
132.40713
139.88055
148.34155
158.14745
169.88839
184.6458
204.68207
235.51395
292.84246
-177.37008
-120.03946
-89.20334
-69.160764
-54.395092
-42.644068
-32.826423
-24.352184
-16.864263
-10.129093
-3.9847922
1.6859203
6.9710456
11.938546
16.642211
21.125541
25.424407
29.56894
33.58489
37.494656
41.318052
45.07293
48.77566
52.441541
56.085149
59.720647
63.362075
67.02363
70.719955
74.466451
78.27962
82.177473
86.180017
90.30986
94.592989
99.059781
103.74637
108.69653
113.96433
119.61799
125.74579
132.46526
139.93854
148.39942
158.20521
169.94605
184.70338
204.73959
235.57143
292.89993
-177.31151
-119.98088
-89.144708
-69.102067
-54.33631
-42.58518
-32.767412
-24.293035
-16.804962
-10.069628
-3.9251528
1.7457401
7.0310499
11.998736
16.702586
21.186096
25.485137
29.629834
33.645938
37.555843
41.379364
45.134349
48.837166
52.503114
56.146768
59.78229
63.42372
67.085254
70.781538
74.527971
78.341059
82.238814
86.241243
90.370958
94.653947
99.120591
103.80703
108.75703
114.02466
119.67817
125.80581
132.52514
139.99829
148.45904
158.26472
170.00546
184.76272
204.79887
235.63067
292.95914
-177.2514
-119.92074
-89.084529
-69.041824
-54.275984
-42.524752
-32.706865
-24.232353
-16.744132
-10.008638
-3.863995
1.8070727
7.092561
12.060427
16.764455
21.248139
25.547348
29.692204
33.708455
37.618493
41.442132
45.197218
48.900117
52.566127
56.209821
59.845363
63.486791
67.148301
70.84454
74.590909
78.403914
82.301568
86.303881
90.433467
94.716316
99.182812
103.86909
108.81894
114.08641
119.73976
125.86725
132.58644
140.05945
148.52008
158.32564
170.06629
184.82347
204.85956
235.69132
293.01977
-177.19004
-119.85936
-89.023112
-68.980347
-54.214426
-42.463097
-32.645096
-24.170455
-16.682092
-9.9464464
-3.8016425
1.8695921
7.1552508
12.123288
16.827486
21.311336
25.610703
29.755709
33.772099
37.682263
41.506012
45.261191
48.964165
52.630231
56.273961
59.909517
63.550938
67.212421
70.908612
74.654914
78.467834
82.365386
86.367583
90.49704
94.77975
99.246098
103.93223
108.88192
114.14923
119.80243
125.92977
132.64881
140.12168
148.58219
158.38765
170.12821
184.8853
204.92134
235.75306
293.08149
-177.12776
-119.79706
-88.96077
-68.917948
-54.151952
-42.40053
-32.582421
-24.107659
-16.619162
-9.8833728
-3.7384174
1.9329742
7.2187931
12.186991
16.891348
21.375353
25.674868
29.820013
33.836532
37.746812
41.570662
45.325925
49.028967
52.695081
56.33884
59.974405
63.615814
67.277266
70.973407
74.71964
78.532473
82.429923
86.432004
90.561334
94.843905
99.310109
103.99609
108.94562
114.21279
119.86583
125.99303
132.71193
140.18467
148.64506
158.45041
170.19088
184.9479
204.98388
235.81556
293.14397
-177.06485
-119.73414
-88.897811
-68.854934
-54.088868
-42.337361
-32.519152
-24.044277
-16.555656
-9.8197336
-3.6746379
1.996899
7.2828658
12.251212
16.955716
21.439862
25.739513
29.884786
33.901421
37.811805
41.635746
45.391084
49.094183
52.760337
56.404118
60.039685
63.681078
67.342495
71.038583
74.784745
78.597491
82.49484
86.496807
90.62601
94.908448
99.374509
104.06034
109.00973
114.27675
119.92964
126.0567
132.77546
140.24808
148.70836
158.5136
170.25398
185.01094
205.04686
235.8785
293.20689
-177.00163
-119.6709
-88.834535
-68.79161
-54.02548
-42.273895
-32.455595
-23.980617
-16.491883
-9.7558392
-3.6106159
2.0610529
7.3471538
12.315634
17.02027
21.504544
25.804317
29.949703
33.966441
37.876916
41.700935
45.456337
49.159484
52.825669
56.469464
60.105028
63.746399
67.407777
71.103808
74.849898
78.662558
82.559806
86.561661
90.690742
94.973048
99.438973
104.12467
109.07391
114.34078
119.99354
126.12046
132.8391
140.31159
148.77176
158.57691
170.31721
185.07409
205.10996
235.94157
293.26994
-176.93838
-119.60763
-88.77124
-68.728272
-53.962084
-42.210429
-32.392047
-23.916978
-16.428143
-9.6919913
-3.5466546
2.1251312
7.4113507
12.37995
17.084701
21.569088
25.868966
30.01445
34.031277
37.94183
41.765914
45.521367
49.224551
52.890758
56.534558
60.170111
63.811456
67.472791
71.168764
74.914781
78.727354
82.624503
86.626249
90.755211
95.037392
99.503186
104.18874
109.13785
114.40459
120.05721
126.184
132.90252
140.37491
148.83497
158.64003
170.38025
185.13707
205.17289
236.00446
293.33282
-176.87539
-119.54463
-88.708211
-68.665204
-53.898967
-42.147251
-32.328798
-23.853648
-16.364727
-9.6284813
-3.4830466
2.1888401
7.4751616
12.443862
17.148712
21.633194
25.933161
30.078726
34.095626
38.006242
41.830377
45.585869
49.289079
52.955297
56.599094
60.23463
63.875942
67.537231
71.233143
74.979087
78.791574
82.688628
86.690267
90.819116
95.101177
99.566846
104.25228
109.20126
114.46787
120.12037
126.24704
132.96544
140.43772
148.89769
158.70266
170.44281
185.19957
205.23534
236.06689
293.39523
-176.81293
-119.48216
-88.645722
-68.602683
-53.836404
-42.084636
-32.266124
-23.790907
-16.301912
-9.5655883
-3.4200718
2.2518988
7.5383047
12.507089
17.21202
21.696578
25.996616
30.142246
34.159202
38.069865
41.894037
45.649554
49.352778
53.018997
56.662783
60.298293
63.939568
67.600806
71.296657
75.042527
78.85493
82.75189
86.753428
90.882169
95.164117
99.629669
104.31498
109.26384
114.53033
120.18272
126.30928
133.02758
140.49976
148.95964
158.76453
170.50461
185.26132
205.29705
236.12857
293.4569
-176.75127
-119.42049
-88.584035
-68.54097
-53.774657
-42.022848
-32.204288
-23.729017
-16.239963
-9.5035773
-3.3579958
2.3140409
7.600513
12.569362
17.274355
21.758971
26.059062
30.204739
34.221734
38.132427
41.956621
45.712151
49.415375
53.081586
56.725351
60.36083
64.002062
67.663246
71.359033
75.104829
78.917151
82.814021
86.815462
90.944101
95.225943
99.691387
104.37659
109.32534
114.59172
120.244
126.37046
133.08867
140.56076
149.02056
158.82538
170.5654
185.32206
205.35775
236.18925
293.51756
-176.69065
-119.35987
-88.523399
-68.480314
-53.713975
-41.962135
-32.143538
-23.668228
-16.17913
-9.4426978
-3.2970687
2.3750161
7.6615356
12.63043
17.335466
21.820121
26.120247
30.265952
34.282969
38.193677
42.017877
45.773405
49.476619
53.142809
56.786545
60.421986
64.06317
67.724298
71.42002
75.165743
78.977984
82.874769
86.876119
91.004663
95.286406
99.75175
104.43685
109.3855
114.65179
120.30397
126.43034
133.14846
140.62048
149.08021
158.88497
170.62493
185.38154
205.4172
236.24867
293.57698
-176.63131
-119.30052
-88.464045
-68.420947
-53.65459
-41.902729
-32.084109
-23.608771
-16.119645
-9.383183
-3.2375236
2.4345912
7.7211394
12.69006
17.39512
21.879795
26.179936
30.325652
34.342674
38.25338
42.077572
45.833084
49.536276
53.202436
56.846134
60.48153
64.122662
67.78373
71.479386
75.225037
79.037201
82.933904
86.935168
91.063624
95.345278
99.810531
104.49554
109.4441
114.7103
120.3624
126.48869
133.20673
140.67868
149.13835
158.94305
170.68297
185.43955
205.47518
236.30663
293.63492
-176.57347
-119.24267
-88.40619
-68.363085
-53.59672
-41.844848
-32.026215
-23.550864
-16.061724
-9.3252483
-3.1795757
2.492551
7.7791095
12.748038
17.453103
21.937779
26.237917
30.383625
34.400635
38.311324
42.135493
45.890977
49.594134
53.260254
56.903907
60.539251
64.180326
67.841333
71.536921
75.282502
79.094592
82.991217
86.992403
91.120778
95.40235
99.867521
104.55245
109.50093
114.76706
120.41908
126.5453
133.26328
140.73517
149.19479
158.99944
170.73932
185.49587
205.53147
236.36291
293.69119
-176.51731
-119.18652
-88.350034
-68.306928
-53.540562
-41.788689
-31.970055
-23.494704
-16.005565
-9.2690912
-3.123422
2.5486993
7.83525
12.804168
17.509219
21.993878
26.293996
30.439679
34.45666
38.367316
42.191449
45.946891
49.650003
53.316074
56.959673
60.59496
64.235975
67.896918
71.59244
75.337951
79.14997
83.046523
87.047635
91.175937
95.457436
99.922536
104.6074
109.55581
114.82187
120.47383
126.6
133.31792
140.78976
149.24933
159.05395
170.7938
185.55031
205.5859
236.41732
293.7456
-176.46303
-119.13224
-88.29576
-68.252659
-53.486299
-41.734434
-31.915811
-23.440472
-15.951348
-9.2148905
-3.0692407
2.6028585
7.8893842
12.858274
17.563294
22.047919
26.347999
30.493642
34.510579
38.421188
42.24527
46.000659
49.703716
53.369729
57.013267
60.648492
64.289442
67.950319
71.645775
75.391219
79.20317
83.099656
87.100702
91.228938
95.510373
99.97541
104.66021
109.60857
114.87457
120.52648
126.6526
133.37048
140.84228
149.30181
159.1064
170.84622
185.60272
205.63829
236.4697
293.79797
-176.41079
-119.08
-88.243531
-68.20044
-53.434095
-41.682247
-31.863645
-23.38833
-15.899233
-9.1628067
-3.0171912
2.6548704
7.9413551
12.910201
17.615173
22.099748
26.399774
30.545361
34.562239
38.472788
42.296808
46.052133
49.755125
53.421071
57.064543
60.699701
64.340584
68.001395
71.696784
75.442163
79.254051
83.150474
87.151459
91.279637
95.561017
100.026
104.71075
109.65906
114.92502
120.57689
126.70297
133.42082
140.89259
149.3521
159.15666
170.89646
185.65294
205.6885
236.51991
293.84818
-176.36074
-119.02996
-88.193497
-68.150421
-53.384096
-41.632274
-31.813702
-23.338422
-15.849364
-9.1129818
-2.9674143
2.7045953
7.9910243
12.959811
17.664721
22.14923
26.449189
30.594706
34.611513
38.521989
42.345935
46.101187
49.804105
53.469978
57.113378
60.748465
64.389279
68.050022
71.745346
75.490663
79.30249
83.198856
87.199788
91.327915
95.609247
100.07419
104.7589
109.70717
114.9731
120.62494
126.75099
133.46881
140.94056
149.40005
159.2046
170.94439
185.70086
205.73641
236.56781
293.89607
-176.31301
-118.98223
-88.145787
-68.102732
-53.336433
-41.584643
-31.76611
-23.290875
-15.801867
-9.0655399
-2.9200326
2.7519123
8.0382724
13.006987
17.711821
22.196252
26.49613
30.641565
34.658289
38.568681
42.392545
46.147715
49.850551
53.516346
57.159669
60.794682
64.435425
68.096101
71.791361
75.536618
79.348389
83.244703
87.245587
91.37367
95.654963
100.11987
104.80455
109.75279
115.01869
120.67051
126.79655
133.51435
140.98609
149.44557
159.25011
170.98989
185.74636
205.78191
236.6133
293.94156
-176.26772
-118.93695
-88.100516
-68.057485
-53.291217
-41.539467
-31.72098
-23.245798
-15.75685
-9.0205878
-2.8751514
2.7967177
8.0829976
13.051628
17.756375
22.240716
26.540503
30.685845
34.702476
38.612777
42.436549
46.19163
49.89438
53.560091
57.203334
60.83827
64.478941
68.13955
71.834747
75.579947
79.391666
83.287933
87.288775
91.416822
95.698083
100.16296
104.84762
109.79584
115.06173
120.71354
126.83956
133.55736
141.02909
149.48856
159.2931
171.03288
185.78935
205.8249
236.65629
293.98456
-176.22496
-118.8942
-88.057783
-68.014779
-53.248548
-41.496842
-31.678407
-23.203285
-15.714404
-8.9782161
-2.8328593
2.8389247
8.1251149
13.093651
17.798302
22.282544
26.582231
30.727472
34.744002
38.654203
42.477878
46.232864
49.935522
53.601146
57.244306
60.879165
64.519764
68.180306
71.875444
75.620589
79.43226
83.328485
87.329291
91.457308
95.738544
100.2034
104.88804
109.83626
115.10214
120.75394
126.87996
133.59776
141.06949
149.52897
159.33351
171.07329
185.82976
205.86531
236.69671
294.02497
-176.18482
-118.85407
-88.017672
-67.974698
-53.208506
-41.456849
-31.638472
-23.163415
-15.674607
-8.9384997
-2.7932297
2.878462
8.1645551
13.132991
17.837537
22.321673
26.621252
30.766386
34.78281
38.692906
42.516479
46.271366
49.97393
53.639464
57.28254
60.917321
64.557849
68.218326
71.913405
75.658499
79.470126
83.366314
87.367089
91.495082
95.776299
100.24114
104.92577
109.87399
115.13986
120.79167
126.9177
133.6355
141.10724
149.56673
159.37128
171.11107
185.86754
205.9031
236.73449
294.06276
-176.14736
-118.81663
-87.980253
-67.937311
-53.171161
-41.419556
-31.601239
-23.126252
-15.637523
-8.9014999
-2.7563216
2.9152726
8.2012634
13.169593
17.87403
22.358055
26.657522
30.802544
34.818858
38.728845
42.552313
46.307099
50.009567
53.67501
57.318002
60.952706
64.593163
68.253577
71.948601
75.693647
79.505234
83.401389
87.402139
91.530112
95.811317
100.27615
104.96078
109.909
115.17488
120.82669
126.95273
133.67055
141.1423
149.6018
159.40636
171.14616
185.90264
205.9382
236.76961
294.09788
-176.11266
-118.78193
-87.945584
-67.902675
-53.136568
-41.385017
-31.566763
-23.091849
-15.6032
-8.8672649
-2.7221814
2.9493123
8.2351977
13.203418
17.907743
22.391654
26.691007
30.835915
34.852116
38.761994
42.585355
46.34004
50.042412
53.707765
57.350674
60.985301
64.62569
68.286044
71.981015
75.726017
79.537568
83.433694
87.434423
91.562381
95.843578
100.30841
104.99304
109.94126
115.20716
120.85899
126.98504
133.70287
141.17464
149.63415
159.43873
171.17854
185.93504
205.97061
236.80202
294.13029
-176.08076
-118.75004
-87.913711
-67.870835
-53.104773
-41.353276
-31.535087
-23.060245
-15.571677
-8.8358316
-2.6908437
2.9805485
8.2663277
13.234438
17.93865
22.422447
26.721686
30.86648
34.882569
38.792338
42.615594
46.370178
50.072455
53.73772
57.380547
61.015101
64.655424
68.31572
72.010643
75.755604
79.567122
83.463224
87.463935
91.591883
95.873076
100.33791
105.02255
109.97078
115.23669
120.88853
127.0146
133.73246
141.20424
149.66378
159.46837
171.2082
185.96471
206.00029
236.8317
294.15998
-176.05168
-118.72098
-87.884671
-67.841829
-53.07581
-41.324367
-31.506241
-23.031472
-15.542985
-8.8072271
-2.6623338
3.0089582
8.2946325
13.262634
17.966736
22.45042
26.749546
30.894229
34.910208
38.81987
42.643024
46.39751
50.099695
53.764875
57.407625
61.042108
64.682369
68.342611
72.037488
75.782412
79.593901
83.489982
87.490679
91.618621
95.899813
100.36466
105.0493
109.99755
115.26347
120.91534
127.04143
133.7593
141.23111
149.69066
159.49528
171.23512
185.99164
206.02724
236.85866
294.18694
-176.02547
-118.69478
-87.858492
-67.815681
-53.049705
-41.298314
-31.48025
-23.005551
-15.517142
-8.7814698
-2.6366682
3.0345268
8.3200998
13.287997
17.991991
22.475568
26.774585
30.91916
34.935034
38.844594
42.667649
46.422043
50.124141
53.78924
57.431916
61.066333
64.706536
68.366728
72.061563
75.806454
79.617917
83.513979
87.514666
91.642604
95.923798
100.38865
105.07331
110.02157
115.28751
120.9394
127.06551
133.78341
141.25524
149.71481
159.51945
171.25931
186.01585
206.05145
236.88288
294.21117
-176.00214
-118.67146
-87.835193
-67.792414
-53.026478
-41.275136
-31.457131
-22.982498
-15.494163
-8.7585717
-2.6138567
3.0572465
8.3427236
13.310522
18.014415
22.497889
26.796805
30.941279
34.957054
38.866518
42.689481
46.443787
50.145804
53.810828
57.453435
61.087791
64.727941
68.388087
72.082885
75.827745
79.639186
83.535234
87.535912
91.663848
95.945047
100.40991
105.09458
110.04286
115.30882
120.96073
127.08686
133.80478
141.27664
149.73623
159.54089
171.28077
186.03732
206.07293
236.90437
294.23266
-175.98171
-118.65103
-87.814791
-67.772039
-53.006141
-41.254845
-31.436893
-22.962322
-15.474056
-8.7385387
-2.5939039
3.0771147
8.3625033
13.33021
18.03401
22.51739
26.816212
30.960593
34.976277
38.885653
42.708532
46.462759
50.164701
53.829656
57.472202
61.106503
64.746604
68.40671
72.101474
75.846308
79.65773
83.553765
87.554438
91.682374
95.963577
100.42845
105.11313
110.06143
115.32741
120.97934
127.1055
133.82344
141.29532
149.75493
159.5596
171.2995
186.05607
206.09169
236.92314
294.25143
-175.96419
-118.63352
-87.797293
-67.754567
-52.988702
-41.237447
-31.419544
-22.945028
-15.456823
-8.721373
-2.57681
3.0941326
8.379442
13.347067
18.050784
22.53408
26.832817
30.977115
34.992718
38.902016
42.72482
46.478975
50.180852
53.845746
57.488237
61.122489
64.762548
68.422619
72.117354
75.862165
79.673571
83.569596
87.570264
91.698201
95.979411
100.44429
105.12899
110.0773
115.3433
120.99525
127.12143
133.83939
141.31129
149.77093
159.57562
171.31553
186.0721
206.10774
236.93919
294.26749
-175.94958
-118.61892
-87.782706
-67.740002
-52.974166
-41.222947
-31.405085
-22.930617
-15.442465
-8.7070735
-2.5625726
3.1083043
8.3935451
13.361099
18.064744
22.547967
26.846632
30.990859
35.006392
38.915622
42.738361
46.492456
50.194275
53.859118
57.501562
61.135773
64.775796
68.435836
72.130546
75.875339
79.686731
83.582749
87.583414
91.711352
95.992568
100.45746
105.14217
110.09049
115.35651
121.00848
127.13468
133.85266
141.32457
149.78423
159.58893
171.32886
186.08545
206.12109
236.95255
294.28085
-175.93789
-118.60723
-87.771033
-67.728347
-52.962534
-41.211345
-31.393518
-22.91909
-15.430981
-8.6956372
-2.5511876
3.1196351
8.4048194
13.372315
18.075901
22.559064
26.85767
31.001837
35.017313
38.926487
42.749173
46.503218
50.204991
53.869791
57.512196
61.146374
64.786367
68.446383
72.141073
75.885851
79.697233
83.593245
87.593908
91.721848
96.003068
100.46796
105.15269
110.10103
115.36706
121.01904
127.14525
133.86325
141.33518
149.79485
159.59957
171.33951
186.0961
206.13176
236.96322
294.29152
-175.92911
-118.59846
-87.762274
-67.719601
-52.953807
-41.20264
-31.38484
-22.910442
-15.422367
-8.68706
-2.5426498
3.1281313
8.4132723
13.380724
18.084263
22.567381
26.865941
31.010063
35.025494
38.934626
42.757272
46.511279
50.213016
53.877784
57.52016
61.154311
64.794282
68.454279
72.148955
75.893722
79.705096
83.601103
87.601765
91.729707
96.010931
100.47583
105.16057
110.10892
115.37496
121.02695
127.15318
133.87119
141.34313
149.80281
159.60754
171.34749
186.10409
206.13975
236.97122
294.29952
-175.92326
-118.59261
-87.756427
-67.713764
-52.947983
-41.196831
-31.379048
-22.904671
-15.416619
-8.6813365
-2.5369529
3.1338001
8.4189117
13.386333
18.089842
22.572928
26.871457
31.015548
35.03095
38.940053
42.762672
46.516652
50.218366
53.883112
57.525468
61.159602
64.799558
68.459543
72.154209
75.898968
79.710337
83.606341
87.607002
91.734945
96.016173
100.48108
105.16582
110.11417
115.38023
121.03223
127.15846
133.87648
141.34843
149.80812
159.61285
171.35281
186.10942
206.14508
236.97655
294.30486
-175.92032
-118.58967
-87.753488
-67.710829
-52.945053
-41.193909
-31.376135
-22.901768
-15.413728
-8.6784578
-2.5340876
3.1366511
8.4217479
13.389154
18.092647
22.575718
26.874231
31.018307
35.033694
38.942782
42.765387
46.519355
50.221056
53.885791
57.528137
61.162262
64.802211
68.462189
72.15685
75.901606
79.712972
83.608975
87.609636
91.73758
96.018809
100.48372
105.16846
110.11682
115.38288
121.03488
127.16112
133.87914
141.3511
149.81079
159.61553
171.35548
186.1121
206.14776
236.97924
294.30755
-126.10006
-102.88629
-82.517952
-66.153845
-52.89727
-41.868222
-32.445215
-24.21053
-16.879967
-10.254493
-4.1902547
1.4198383
6.6576545
11.587274
16.259924
20.717357
24.994218
29.119749
33.119051
37.014024
40.824102
44.566826
48.258315
51.913646
55.547199
59.17295
62.804751
66.456606
70.142947
73.878934
77.68079
81.566185
85.554704
89.66842
93.932617
98.376742
103.03565
107.95131
113.17518
118.77154
124.82249
131.43533
138.75411
146.97804
156.39149
167.41234
180.6622
197.02118
217.38607
240.59811
-126.09531
-102.88153
-82.513185
-66.149071
-52.892486
-41.863426
-32.440404
-24.205703
-16.875122
-10.249628
-4.18537
1.4247439
6.6625816
11.592222
16.264894
20.722349
24.99923
29.124782
33.124102
37.019093
40.829187
44.571926
48.263426
51.918767
55.552327
59.178082
62.809886
66.461741
70.14808
73.884064
77.685913
81.5713
85.55981
89.673514
93.937699
98.38181
103.0407
107.95635
113.1802
118.77655
124.82749
131.44031
138.75907
146.98299
156.39643
167.41727
180.66712
197.02609
217.39097
240.60302
-126.0858
-102.87202
-82.503666
-66.139538
-52.882933
-41.853848
-32.430798
-24.196065
-16.865448
-10.239916
-4.1756175
1.4345382
6.6724185
11.602102
16.274817
20.732314
25.009237
29.134829
33.134187
37.029213
40.839338
44.582104
48.273627
51.928987
55.562562
59.188327
62.820136
66.471992
70.158327
73.894302
77.69614
81.581511
85.570001
89.683682
93.947841
98.391924
103.05079
107.9664
113.19022
118.78654
124.83745
131.45024
138.76898
146.99287
156.40629
167.42711
180.67694
197.0359
217.40077
240.61281
-126.07161
-102.85782
-82.489453
-66.125301
-52.868667
-41.839547
-32.416454
-24.181673
-16.851004
-10.225416
-4.1610574
1.4491603
6.687104
11.616852
16.289631
20.747191
25.024176
29.149826
33.14924
37.044317
40.854489
44.597296
48.288854
51.944242
55.577838
59.203618
62.835434
66.487291
70.17362
73.909583
77.711402
81.596749
85.58521
89.698857
93.962978
98.407019
103.06584
107.98141
113.20518
118.80145
124.85231
131.46506
138.78376
147.00761
156.421
167.44179
180.6916
197.05054
217.4154
240.62743
-126.05282
-102.83902
-82.47063
-66.106449
-52.849776
-41.820608
-32.397461
-24.162617
-16.831879
-10.206217
-4.1417802
1.4685189
6.706546
11.636378
16.309242
20.766885
25.04395
29.169678
33.169165
37.06431
40.874542
44.617403
48.309006
51.964431
55.598055
59.223853
62.85568
66.507537
70.193859
73.929806
77.7316
81.616915
85.605337
89.718938
93.983009
98.426996
103.08576
108.00127
113.22498
118.82119
124.87199
131.48468
138.80332
147.02713
156.44047
167.46122
180.711
197.06992
217.43476
240.64679
-126.02954
-102.81573
-82.447311
-66.083094
-52.826374
-41.797149
-32.373933
-24.139013
-16.808191
-10.182438
-4.1179052
1.4924937
6.7306232
11.660559
16.333526
20.791271
25.068435
29.194258
33.193834
37.089061
40.899368
44.642294
48.333953
51.989423
55.623081
59.248902
62.880741
66.532599
70.218911
73.954837
77.756601
81.641876
85.630249
89.743795
94.007803
98.451722
103.11041
108.02585
113.24948
118.84562
124.89634
131.50897
138.82754
147.05128
156.46457
167.48527
180.73501
197.0939
217.45873
240.67074
-126.00191
-102.78808
-82.419637
-66.055378
-52.798602
-41.769309
-32.346014
-24.111005
-16.780084
-10.154225
-4.0895796
1.5209364
6.759186
11.689243
16.362331
20.820196
25.097476
29.22341
33.223091
37.118414
40.928808
44.67181
48.363534
52.019056
55.652754
59.278602
62.910454
66.562313
70.248612
73.984513
77.786241
81.671469
85.659784
89.773264
94.037198
98.481036
103.13964
108.05499
113.27853
118.87458
124.92522
131.53776
138.85625
147.07992
156.49315
167.5138
180.76349
197.12234
217.48715
240.69915
-125.97009
-102.75625
-82.387773
-66.023466
-52.766627
-41.737257
-32.313873
-24.078762
-16.747729
-10.121749
-4.0569766
1.5536722
6.7920581
11.722253
16.395479
20.853478
25.13089
29.25695
33.256749
37.152181
40.962673
44.705762
48.397559
52.053141
55.686883
59.312761
62.944627
66.596486
70.28277
74.018642
77.820328
81.705501
85.69375
89.807153
94.071002
98.514748
103.17326
108.0885
113.31194
118.90789
124.95843
131.57088
138.88928
147.11287
156.52602
167.54661
180.79625
197.15506
217.51984
240.73183