/*--------------------------------*- C++ -*----------------------------------*\
  =========                 |
  \\      /  F ield         | OpenFOAM: The Open Source CFD Toolbox
   \\    /   O peration     | Website:  https://openfoam.org
    \\  /    A nd           | Version:  12
     \\/     M anipulation  |
\*---------------------------------------------------------------------------*/
FoamFile
{
    format      ascii;
    class       volScalarField;
    location    "5";
    object      p;
}
// * * * * * * * * * * * * * * * * * * * * * * * * * * * * * * * * * * * * * //

dimensions      [0 2 -2 0 0 0 0];

internalField   nonuniform List<scalar> 
226563
(
543797.66
543301.03
542287.08
540625.77
538292.16
535246.98
531436.26
526794.52
521248.27
514716.48
507114.51
498358
488373.38
477104.73
464527.62
450649.73
435523.64
419238.54
401911.32
383677.44
364684.71
345102.77
325126.85
304972.4
284867.07
265022.66
245634.56
226869.07
208860.71
191709.19
175481.56
160218.96
145942.01
132654.35
120344.22
108986.54
98545.638
88978.646
80237.999
72273.067
65031.763
58461.625
52510.897
47129.179
42268.111
37881.553
33926.477
30363.048
27154.386
24266.402
21667.658
19328.586
17222.307
15325.031
13615.086
12072.601
10679.544
9419.5644
8278.0061
7240.7917
6295.1195
5429.9701
4634.9164
3900.1309
3216.3834
2574.8318
1967.0103
1385.0157
821.78954
271.71103
543222.99
542783.77
541802.42
540161.2
537837.5
534794.8
530980.48
526329.57
520767.63
514212.72
506579.17
497782.41
487748.33
476421.78
463776.91
449823.62
434611.97
418230.12
400795.1
382443.74
363333.09
343640.04
323567.21
303336.88
283176.15
263300.27
243902.18
225146.89
207166.39
190057.93
173886.66
158691.45
144490.38
131284.45
119059.46
107788.2
97433.339
87950.661
79291.494
71404.5
64237.019
57736.257
51850.171
46528.343
41722.53
37386.927
33478.711
29958.255
26788.872
23936.745
21370.614
19061.147
16981.869
15109.241
13421.754
11899.776
10525.477
9282.7142
8156.9743
7134.3153
6202.1162
5349.4494
4566.0143
3842.1529
3168.753
2537.0982
1938.8253
1366.1047
811.82555
268.90632
542292.36
541848.37
540866.63
539229.23
536908.2
533863.49
530040.51
525372.25
519781.64
513184.12
505491.65
496618.56
486488.82
475047.18
462266.91
448157.69
432768.43
416185.52
398527.16
379938.58
360588.67
340671.39
320402.28
300013.76
279738.53
259793.81
240371.76
221634.02
203708.05
186686.39
170629.63
155571.7
141525.31
128485.95
116434.44
105339.28
95159.657
85848.592
77355.336
69627.021
62609.901
56250.347
50495.886
45296.089
40603.005
36371.296
32558.623
29125.771
26036.51
23257.494
20757.77
18508.649
16484.447
14662.05
13020.361
11540.181
10204.149
8996.5688
7902.8985
6909.6115
6004.6812
5177.3182
4417.4487
3715.6698
3063.1234
2451.3436
1872.2248
1318.203
782.50398
258.91551
540898.5
540455.82
539472.15
537834.24
535511.26
532459.81
528622.13
523927.84
518295.8
511637.29
503860.18
494874.92
484602.98
472985.78
459995.74
445641.2
429970.16
413069.81
395064.22
376111.1
356399.14
336142.95
315578.87
294953.19
274507.41
254462.16
235008.38
216302.96
198466.48
181584.04
165708.34
150865.06
137058.43
124275.6
112489.84
101663.23
91749.819
82698.641
74456.034
66966.972
60176.057
54028.508
48471.487
43454.741
38930.724
34854.71
31185.071
27883.282
24913.769
22243.856
19843.244
17684.353
15742.466
13995.115
12421.852
11004.139
9725.3642
8570.2221
7524.3677
6575.0713
5710.9006
4921.3489
4196.704
3527.9343
2906.5559
2324.479
1773.9976
1247.9349
740.19879
244.735
539024.86
538585.43
537600.8
535961.37
533634.06
530572.25
526714.64
521986.48
516301.48
509564.88
501678.21
492545.67
482082.21
470225.23
456943.21
442243.21
426173.7
408826.25
390336.23
370880.89
350673.86
329958.53
308996.4
288053.91
267384.11
247211.98
227726.64
209078.15
191377.52
174698.5
159081.9
144541.28
131068.86
118640.48
107219.34
96759.024
87206.878
78507.017
70602.107
63434.361
56946.237
51081.886
45788.349
41015.678
36716.865
32848.026
29368.481
26240.652
23429.773
20904.216
18634.952
16595.753
14762.947
13114.999
11632.365
10297.411
9094.4131
8008.4641
7025.9409
6135.0094
5324.7776
4585.2399
3907.1759
3282.0442
2701.8397
2158.9618
1646.1998
1157.1398
685.62995
226.43663
536663.18
536226.35
535240.3
533598.18
531264.57
528189.58
524307.7
519538.88
513790.38
506959.66
498939.09
489623.02
478917.53
466751.55
453088.94
437933.79
421336.76
403398.68
384273.04
364164.22
343319.52
322017.32
300552.63
279215.99
258275.12
237959.86
218455.85
199903.53
182399.95
166003.03
150736.84
136598.43
123564.28
111595.9
100643.91
90651.648
81558.604
73303.102
65823.527
59058.773
52949.149
47438.114
42472.798
38003.682
33984.594
30372.757
27128.671
24215.782
21600.679
19253.349
17146.435
15255.15
13557.055
12031.815
10661.05
9428.2456
8318.6555
7318.003
6413.7457
5594.8746
4851.1963
4173.3501
3552.7342
2981.3982
2451.9208
1957.2261
1491.0735
1047.1303
619.53079
204.32682
533799.94
533364.91
532376.89
530731.25
528390.23
525300.24
521391
516576.14
510754.95
503814.76
495636.09
486099.92
475099.08
462551.93
448412.55
432682.13
415415.39
396727.54
376798.34
355869.73
334232.56
312210.85
290138.78
268337.29
247090.28
226631.56
207140.37
188742.68
171516.38
155497.47
140687.94
127063.61
114581.42
103185.43
92811.703
83391.919
74856.911
67138.63
60170.634
53888.352
48230.475
43140.18
38564.863
34455.784
30767.964
27459.972
24493.533
21833.704
19449.231
17312.001
15396.426
13679.348
12139.857
10759.071
9519.9983
8407.4964
7407.7626
6507.5144
5695.4781
4961.5033
4296.2168
3691.0295
3138.0645
2630.0613
2160.2701
1722.3066
1310.8164
919.37657
543.08574
178.92199
530418.64
529984.92
528994.87
527345.75
524997.31
521892.06
517954.12
513089.74
507188.44
500125.12
491764.86
481971.8
470621.65
457615.4
442896.05
426458.86
408364.91
388750.41
367831.5
345900.1
323304.84
300425.75
277646.47
255321.1
233750.71
213170.33
193747.33
175586.72
158739.68
143213.82
128982.96
115996.75
104188.74
93482.996
83799.276
75057.01
67177.889
60087.143
53713.304
47988.898
42851.769
38245.149
34117.075
30420.081
27110.684
24148.845
21498.149
19126.245
17004.252
15106.062
13408.08
11889.052
10529.852
9313.2945
8223.977
7248.2744
6373.3328
5587.3532
4880.3095
4242.9932
3666.9649
3144.5146
2668.5808
2232.6768
1830.7437
1457.556
1107.724
775.55833
457.4577
150.53253
526501.39
526068.87
525077.46
523425.99
521071.66
517952.62
513986.89
509072.11
503085.99
495888.08
487325.03
477239.41
465483.39
451937.45
436525.92
419237.95
400143.2
379406.22
357291.97
334159.01
310430.13
286557.23
262980.08
240090.69
218204.72
197552.49
178281.66
160467.09
144124.91
129226.4
115710.95
103497.1
92491.634
82596.547
73714.532
65752.433
58622.86
52244.413
46541.186
41443.882
36890.131
32823.685
29193.858
25954.952
23065.021
20486.103
18184.793
16131.551
14299.89
12666.01
11208.578
9908.4826
8748.6139
7713.6627
6789.9939
5965.6106
5228.7933
4569.4443
3978.7411
3448.5657
2971.5114
2540.8252
2150.3395
1794.4046
1467.7847
1166.3304
884.48115
617.81674
363.73233
119.49778
522030.03
521599.03
520607.68
518956.11
516598.87
513469.59
509479.37
504516.03
498443.37
491103.14
482319.02
471906.78
459689.82
445518.33
429295.75
411000.6
390714.2
368639.55
345106.62
320560.26
295519.39
270522.45
246076.44
222609.55
200446.99
179805.57
160801.96
143469.7
127780.19
113660.48
101008.81
89708.076
79635.681
70670.423
62697.743
55612.245
49318.08
43728.072
38763.221
34353.506
30437.02
26958.838
23870.274
21127.543
18690.918
16525.832
14602.15
12893.108
11374.901
10026.349
8828.617
7764.9404
6820.3993
5981.7189
5237.1905
4576.4064
3989.128
3466.971
3002.3709
2588.3895
2218.7243
1887.6453
1589.9338
1320.7726
1076.1998
852.204
643.84098
448.31596
263.18208
86.239767
516986.89
516558.08
515568.76
513920.41
511564.74
508430.46
504421.31
499413.99
493256.75
485770.23
476751.34
465982.56
453249.47
438367.15
421207.25
401736.82
380052.44
356407.89
331219.1
305042.49
278516.82
252285.68
226926.64
202903.26
180538.29
160020.96
141425.28
124734.22
109864.22
96688.087
85056.169
74811.747
65801.042
57879.399
50915.703
44793.507
39409.919
34673.557
30503.958
26831.506
23595.721
20743.854
18229.817
16012.352
14055.419
12328.246
10803.92
9458.7013
8271.7861
7224.8602
6301.7574
5488.2204
4771.6538
4140.9331
3586.3083
3098.9099
2670.4767
2294.1633
1963.6997
1673.3988
1418.1161
1193.1921
994.39927
817.82883
660.75649
519.05008
389.03059
269.08583
157.00113
51.153505
511355.36
510929.67
509944.86
508303.86
505955.16
502822.62
498801.96
493757.93
487521.56
479889.79
470627.23
459476.44
446177.8
430497.79
412271.78
391449.21
368147.84
342690.14
315605.42
287590.4
259429.59
231882.31
205603.25
181071.73
158597.8
138340.73
120323.93
104462.56
90600.498
78544.983
68092.276
59043.89
51214.781
44438.072
38568.363
33480.578
29066.954
25233.942
21901.589
19002.055
16477.375
14277.957
12361.207
10689.344
9230.5162
7957.6868
6847.3515
5879.2034
5035.7428
4301.6903
3663.6317
3109.9222
2630.3679
2216.0352
1859.1255
1552.5222
1289.978
1066.0739
875.91567
715.10223
579.67495
466.06534
371.05509
291.69988
226.21898
170.93502
123.29516
82.351084
46.493878
14.668998
505120.56
504699.01
503721.44
502092.06
499756.33
496633.03
492609.69
487538.54
481232.04
473460.08
463950.92
452399.67
438490.03
421932.08
402510.16
380154.95
355014.09
327501.94
298296.12
268266.24
238358.15
209451.07
182258.24
157279.63
134827.07
115018.04
97795.885
82980.844
70327.389
59568.328
50443.371
42713.619
36165.202
30611.201
25896.127
21889.989
18482.802
15581.596
13109.073
11000.602
9201.9338
7667.7141
6359.0945
5242.5467
4290.5501
3479.9176
2790.9064
2206.8102
1713.3696
1298.2713
951.01215
662.66897
425.45318
232.62097
78.34466
-42.622681
-134.68059
-201.765
-247.37978
-274.64187
-286.32159
-284.89824
-272.62856
-251.12768
-221.9275
-188.11959
-150.43268
-109.76164
-67.054963
-22.785028
498270.02
497853.51
496885.64
495271.88
492954.83
489848.35
485831.68
480744.25
474378.8
466476.03
456722.64
444759.44
430204.54
412694.43
391955.31
367893.24
340698.98
310914.06
279406.5
247243.8
215492.5
185159.21
157047.17
131718.49
109479.73
90364.534
74195.724
60672.034
49442.554
40158.586
32501.18
26191.447
20990.798
16702.958
13170.349
10263.007
7870.9656
5904.9917
4292.4343
2973.2131
1897.7916
1025.6147
321.96735
-241.7177
-688.64541
-1038.0856
-1306.0901
-1505.9986
-1648.9288
-1744.1525
-1799.2785
-1820.7392
-1813.9645
-1783.4616
-1733.1013
-1666.2904
-1585.6575
-1493.6604
-1392.44
-1283.847
-1169.4894
-1050.7671
-928.96452
-804.38585
-678.75768
-553.79454
-429.02741
-305.12407
-182.40762
-60.804404
490794.65
490383.68
489427.27
487832.17
485538.45
482455.06
478453.37
473360.01
466947.54
458925.39
448936.02
436559.05
421334.71
402816.52
380654.89
354731.13
325299.64
293074.11
259152.23
224698.77
190954.99
159144.94
130183.26
104701.5
82949.941
64829.344
50003.808
38024.163
28421.985
20764.257
14677.237
9849.9439
6031.5862
3025.3214
673.85059
-1150.1889
-2549.1057
-3603.454
-4379.7171
-4932.5029
-5305.837
-5535.3758
-5650.9509
-5676.2812
-5630.4965
-5529.1309
-5384.7609
-5207.4929
-5005.4252
-4784.9955
-4551.2999
-4308.4006
-4059.4255
-3806.8366
-3552.6754
-3298.5289
-3045.3161
-2794.0794
-2545.641
-2300.6305
-2059.5348
-1822.7136
-1590.5005
-1362.2657
-1139.144
-921.89606
-709.36023
-501.58955
-298.31423
-98.980118
482690.08
482284.54
481340.19
479764.98
477496.72
474439.66
470457.96
465366.07
458916.45
450787.39
440574.26
427790.92
411892.78
392332.7
368676.46
340776.92
308973.95
274206.77
237719.31
200823.48
165086.97
131876.85
102266.24
76915.972
55972.069
39153.882
25931.459
15691.666
7847.6632
1891.6562
-2591.2215
-5929.1097
-8376.2582
-10128.162
-11336.839
-12121.069
-12571.458
-12760.485
-12746.564
-12575.743
-12285.755
-11907.118
-11464.573
-10977.568
-10461.49
-9928.4888
-9388.0032
-8847.2542
-8311.645
-7785.1267
-7270.4875
-6769.6123
-6283.6574
-5813.2789
-5358.7898
-4920.0906
-4496.5871
-4087.9513
-3693.7347
-3313.4192
-2946.4208
-2592.1212
-2249.9412
-1918.4461
-1597.9983
-1288.6305
-988.52222
-697.11358
-413.57092
-136.91635
473958.3
473557.12
472623.56
471066.49
468821.56
465789
461826.67
456737.82
450256.21
442029.82
431608.19
418437.68
401881.09
381284.36
356113.75
326191.05
291965.12
254583.5
215445.82
176181.62
138611.27
104232.55
74269.769
49379.95
29557.815
14299.493
2857.9318
-5545.5083
-11603.235
-15879.573
-18812.918
-20735.386
-21895.645
-22479.84
-22628.469
-22448.517
-22021.705
-21412.231
-20669.565
-19832.304
-18931.488
-17991.645
-17032.435
-16069.219
-15114.133
-14176.415
-13262.88
-12378.329
-11525.927
-10707.533
-9923.9766
-9175.2968
-8460.9337
-7779.9134
-7131.0743
-6512.8754
-5923.3682
-5360.9742
-4824.1067
-4311.1535
-3820.5326
-3350.7096
-2900.2551
-2466.9862
-2050.5204
-1650.2356
-1263.6839
-889.73183
-527.02826
-174.23622
464609.68
464210.44
463283.8
461738.96
459509.58
456492.86
452541.22
447448.31
440931.49
432612.18
421996.99
408467.5
391297.03
369718.18
343093.37
311204.9
274613.14
234659.48
193012.31
151661.41
112588.98
77417.549
47466.584
23358.146
4905.521
-8646.3817
-18264.881
-24876.344
-29251.523
-31985.955
-33522.377
-34184.342
-34207.213
-33763.056
-32979.059
-31950.489
-30749.403
-29431.087
-28038.154
-26603.927
-25153.914
-23708.044
-22281.328
-20885.542
-19529.673
-18220.376
-16962.406
-15758.692
-14610.674
-13518.58
-12481.696
-11498.577
-10567.254
-9685.4015
-8850.6046
-8060.0805
-7310.7186
-6599.8957
-5925.0056
-5283.473
-4672.8209
-4090.6596
-3534.7746
-3002.2927
-2492.1561
-2003.1159
-1532.1406
-1077.5718
-637.59311
-210.58225
454665.34
454264.03
453337.27
451793.85
449565.7
446547.91
442588.44
437473.33
430907.24
422489.93
411692.7
397842.32
380130.94
357690.96
329779.27
296130.59
257401.79
215139.76
171363.69
128364.76
88288.374
52794.56
23234.734
180.30362
-16768.906
-28624.915
-36549.8
-41574.968
-44510.641
-45954.889
-46337.423
-45964.37
-45054.159
-43764.193
-42209.444
-40475.203
-38625.365
-36708.392
-34761.415
-32813.071
-30885.373
-28995.392
-27155.49
-25375.012
-23660.588
-22016.994
-20447.119
-18952.528
-17533.428
-16188.899
-14917.109
-13715.515
-12581.069
-11510.386
-10500.048
-9546.2609
-8644.9434
-7792.5676
-6985.6743
-6220.891
-5494.9525
-4804.7271
-4147.2887
-3519.1452
-2918.6375
-2343.8913
-1791.3466
-1258.8711
-744.23953
-245.61979
444159.99
443751.26
442814.14
441256.37
439008.48
435963.94
431967.5
426800.07
420157.83
411626.27
400652.42
386524.07
368376.72
345263.92
316359.68
281347.53
240942.04
196910.63
151579.17
107458.36
66934.562
31600.244
2807.9527
-18994.344
-34452.621
-44804.359
-51338.622
-55130.177
-56984.033
-57475.695
-57010.625
-55874.571
-54270.297
-52343.594
-50200.72
-47920.26
-45560.775
-43166.429
-40770.951
-38400.302
-36074.369
-33808.587
-31614.517
-29500.442
-27472.098
-25533.263
-23686.062
-21931.025
-20267.525
-18693.929
-17207.685
-15805.516
-14483.616
-13237.837
-12064.006
-10957.545
-9913.5993
-8927.9161
-7996.3286
-7114.781
-6279.3631
-5486.3331
-4732.1415
-4012.759
-3326.0008
-2669.3938
-2038.9302
-1431.9986
-846.02299
-279.04229
433143.57
432720.52
431759.8
430167.37
427872.8
424768.18
420696.31
415435.59
408678.65
400005.16
388852.29
374491.84
356033.96
332497.01
303010.38
267219.32
225850.91
180846.77
134724.51
90109.979
49605.645
14879.564
-12835.168
-33342.665
-47527.191
-56752.937
-62341.72
-65347.434
-66537.019
-66449.95
-65465.175
-63851.165
-61800.088
-59451.425
-56907.425
-54243.822
-51516.94
-48769.233
-46033.244
-43334.209
-40691.648
-38120.896
-35633.615
-33238.577
-30942.068
-28747.943
-26658.334
-24673.807
-22793.369
-21014.998
-19335.811
-17752.093
-16259.569
-14853.586
-13529.462
-12282.054
-11105.909
-9996.2216
-8948.262
-7957.4283
-7019.2852
-6129.5884
-5284.2884
-4479.1666
-3711.0877
-2976.6787
-2272.7107
-1595.4779
-942.10005
-310.57862
421683.61
421237.57
420237.75
418587.27
416214.91
413011.62
408819.49
403417.05
396498.41
387646.71
376305.18
361755.32
343121.04
319437.09
289846.47
253991.28
212564.51
167607.85
121712.05
77471.141
37520.676
3699.1443
-22946.707
-42474.735
-55878.953
-64523.225
-69686.538
-72372.37
-73304.64
-72991.218
-71791.271
-69962.931
-67694.326
-65124.156
-62355.062
-59463.072
-56504.657
-53522.573
-50550.049
-47613.297
-44733.06
-41925.996
-39205.202
-36580.897
-34060.798
-31650.377
-29352.687
-27168.931
-25098.611
-23139.645
-21289.13
-19543.206
-17897.354
-16346.635
-14886.056
-13510.133
-12212.97
-10989.336
-9834.0776
-8742.1692
-7708.774
-6729.2605
-5799.1972
-4914.2948
-4070.1438
-3263.3724
-2490.8535
-1748.035
-1031.744
-339.99659
409868.74
409390.71
408335.72
406602.88
404120.21
400777.86
396418.33
390822.9
383692.24
374622
363077.21
348374.35
329689.15
306125.35
276900.25
241701.26
201176.87
157318.31
112741.3
69930.293
31231.119
-1570.0639
-27540.139
-46713.831
-59987.337
-68637.816
-73866.621
-76632.474
-77639.114
-77380.975
-76209.656
-74381.012
-72084.831
-69463.229
-66622.031
-63638.985
-60571.299
-57462.836
-54348.765
-51257.642
-48212.665
-45232.998
-42334.261
-39529.172
-36827.821
-34237.801
-31764.366
-29410.27
-27176.045
-25059.996
-23059.345
-21170.359
-19388.476
-17708.667
-16125.747
-14634.128
-13227.601
-11900.592
-10647.635
-9463.3962
-8342.7494
-7280.7932
-6272.8165
-5314.2586
-4400.286
-3527.2999
-2691.7385
-1888.6018
-1114.3689
-367.11348
397808.94
397290.89
396165.78
394327.69
391703.93
388184.3
383612.91
377776.34
370386.52
361059.98
349297.17
334470.78
315839.21
292615.92
264139.44
230180.61
191354.4
149441.57
107028.07
66480.167
29637.515
-2065.0815
-27695.169
-47058.923
-60785.091
-69926.115
-75586.226
-78711.402
-80018.686
-80004.976
-79027.456
-77347.912
-75162.46
-72619.328
-69828.608
-66868.756
-63795.363
-60652.637
-57478.683
-54305.597
-51159.895
-48064.011
-45036.889
-42094.529
-39250.176
-36514.339
-33894.852
-31396.96
-29023.105
-26772.334
-24641.917
-22628.376
-20727.349
-18933.934
-17242.805
-15648.393
-14144.387
-12724.848
-11384.114
-10116.624
-8917.0653
-7780.4048
-6701.7931
-5676.487
-4699.5863
-3766.8789
-2873.9268
-2016.3456
-1189.5928
-391.82849
385631.78
385066.99
383859.22
381896.67
379105.91
375377.04
370557.09
364440.31
356754.16
347142.82
335152.65
320227.3
301727.26
278998.42
251522.48
219170.29
182523.87
143117.53
103325.67
65372.827
30700.348
290.36739
-24962.033
-44664.097
-59135.583
-69107.829
-75493.02
-79183.477
-80930.868
-81273.542
-80584.806
-79141.983
-77153.464
-74776.828
-72127.728
-69281.725
-66284.955
-63179.725
-60009.72
-56812.447
-53618.311
-50453.13
-47339.469
-44297.101
-41342.894
-38490.764
-35751.709
-33133.889
-30642.48
-28277.83
-26036.804
-23916.001
-21911.744
-20019.56
-18234.144
-16549.744
-14960.02
-13458.794
-12040.306
-10698.756
-9428.7156
-8225.2041
-7083.4062
-5998.5069
-4965.6974
-3979.8897
-3036.4088
-2130.7149
-1257.2194
-414.11025
373478.19
372862.01
371562.89
369462.13
366485.88
362525.32
357431.73
351009.31
343004.5
333094.17
320877.06
305875.5
287559.66
265413.13
239061.31
208472.29
174197.63
137543.28
100492.55
65089.513
32637.446
3760.2811
-20847.751
-40691.753
-55839.554
-66732.102
-74029.349
-78469.582
-80775.425
-81545.689
-81199.242
-80037.583
-78290.521
-76132.397
-73691.405
-71031.685
-68174.936
-65159.804
-62041.342
-58864.428
-55662.582
-52464.355
-49296.072
-46181.679
-43142.042
-40194.97
-37355.214
-34634.7
-32043.147
-29583.152
-27249.105
-25036.448
-22943.183
-20966
-19099.831
-17338.001
-15673.799
-14101.384
-12615.037
-11208.498
-9876.1768
-8613.4654
-7415.8491
-6278.4844
-5196.565
-4165.117
-3178.7895
-2231.4014
-1317.2733
-434.02195
361497.81
360828.23
359433.45
357187.28
354016
349812.7
344434.3
337696.91
329368.52
319161.68
306730.3
291676.76
273578.98
252050.6
226847.18
198019.98
166088.42
132152.07
97823.871
64836.421
34428.746
7155.5079
-16546.3
-36221.438
-51779.295
-63424.274
-71595.265
-76864.766
-79835.224
-81097.106
-81130.241
-80274.351
-78787.741
-76873.088
-74673.948
-72229.841
-69540.537
-66655.224
-63636.212
-60526.556
-57359.486
-54165.24
-50974.134
-47814.897
-44712.93
-41690.671
-38767.296
-35958.318
-33274.043
-30719.49
-28294.825
-25998.117
-23826.286
-21776.734
-19844.361
-18017.965
-16289.258
-14654.956
-13110.206
-11647.447
-10260.317
-8945.3406
-7698.9095
-6515.9299
-5391.5248
-4321.664
-3300.102
-2318.6264
-1370.1048
-451.72969
349842.21
349119.99
347629.97
345238.32
341871.99
337426.89
331766.81
324721.34
316081.62
305596.99
292976.2
277898.44
260041.09
239132.89
215039.33
187877.04
158133.14
126732.56
94975.892
64252.689
35671.186
9895.6891
-12759.037
-31995.111
-47646.01
-59776.233
-68641.506
-74661.099
-78323.118
-80131.457
-80574.788
-80042.333
-78823.007
-77152.497
-75191.262
-72967.366
-70465.527
-67742.098
-64857.172
-61847.48
-58745.333
-55584.971
-52399.884
-49221.442
-46078.981
-43000.003
-40009.004
-37125.961
-34363.899
-31730.42
-29228.469
-26857.104
-24613.167
-22492.055
-20488.045
-18594.314
-16806.609
-15122.422
-13532.837
-12023.547
-10587.264
-9224.9785
-7935.86
-6713.5138
-5551.7456
-4449.336
-3400.7045
-2393.4747
-1415.8941
-467.16321
338657.7
337885.98
336306.04
333775.98
330223.77
325548.93
319623.21
312290.75
303366.53
292636.2
279860.85
264790.2
247189.35
226884.31
203828.77
178187.2
150415.3
121291.71
91854.543
63212.244
36317.678
11871.64
-9755.7252
-28376.833
-43862.883
-56209.753
-65547.118
-72162.841
-76442.464
-78805.884
-79684.154
-79485.952
-78536.027
-77098.133
-75353.466
-73341.854
-71034.993
-68487.71
-65754.417
-62865.644
-59853.486
-56753.079
-53597.973
-50421.069
-47255.475
-44134.65
-41089.678
-38145.722
-35319.507
-32620.768
-30053.858
-27618.651
-25312.528
-23131.064
-21068.936
-19120.567
-17280.7
-15542.867
-13897.184
-12334.55
-10853.652
-9458.4381
-8141.1646
-6885.4566
-5687.2948
-4554.0632
-3483.1965
-2456.5157
-1453.8899
-478.96342
328080.25
327263.83
325602.91
322946.87
319224.99
314341.09
308175.67
300587.95
291416.49
280481.74
267592.98
252562.44
235229.87
215500.24
193394.87
169109.94
143065.86
115920.47
88522.778
61757.552
36428.787
13186.533
-7509.8666
-25457.743
-40611.461
-52961.053
-62567.169
-69612.327
-74391.392
-77255.829
-78572.454
-78716.058
-78033.582
-76813.642
-75259.551
-73440.358
-71321.692
-68949.743
-66373.673
-63619.017
-60715.789
-57695.206
-54587.421
-51425.815
-48247.564
-45094.225
-42005.982
-39013.265
-36136.626
-33387.602
-30770.559
-28285.69
-25930.708
-23701.527
-21592.872
-19598.959
-17714.12
-15931.593
-14242.578
-12639.776
-11120.43
-9682.3616
-8316.8446
-7014.7964
-5784.7948
-4637.6332
-3557.1322
-2511.4492
-1482.8003
-486.53924
318233.27
317378.57
315648.19
312882.48
309012.21
303945.89
297573.03
289767.85
280391.67
269297.19
256336.71
241376.1
224316.55
205124.98
183872.33
160774.44
136220.45
110776.76
85126.428
60001.678
36093.299
13981.249
-5864.8974
-23172.081
-37912.114
-50125.627
-59842.071
-67169.808
-72328.797
-75607.973
-77327.371
-77813.007
-77395.354
-76378.889
-74990.664
-73336.339
-71388.578
-69180.596
-66758.809
-64143.974
-61361.151
-58432.317
-55378.159
-52234.24
-49051.941
-45880.724
-42765.187
-39741.18
-36830.39
-34045.188
-31391.408
-28869.6
-26477.478
-24211.442
-22066.512
-20036.612
-18115.596
-16297.947
-14575.505
-12938.949
-11383.919
-9908.3355
-8507.5482
-7176.7077
-5917.0454
-4730.9858
-3609.3674
-2521.1792
-1473.6796
-491.39066
309224.58
308339.93
306554.37
303698.56
299704.59
294485.63
287940.24
279957.12
270418.93
259207.56
246212.76
231345.36
214556.36
195860.35
175363.24
153293.66
130006.35
105982.49
81806.944
58099.212
35447.261
14379.502
-4666.1593
-21387.052
-35711.207
-47714.395
-57432.299
-64927.404
-70361.408
-73970.028
-76030.021
-76833.775
-76676.412
-75853.033
-74612.672
-73091.286
-71290.839
-69228.461
-66950.655
-64474.064
-61815.286
-58981.581
-55983.769
-52862.727
-49684.655
-46512.234
-43391.487
-40355.588
-37427.073
-34619.132
-31938.876
-29388.542
-26966.863
-24670.853
-22496.234
-20437.462
-18488.282
-16642.353
-14892.106
-13228.731
-11645.288
-10137.45
-8702.0211
-7332.6154
-6021.3057
-4760.0457
-3547.3031
-2386.3653
-1319.938
-391.45727
301142.47
300237.37
298412.49
295487.7
291395.86
286054.72
279371.55
271248.86
261588.79
250298.97
237300.99
222542.17
206013.56
187763.83
167921.14
146714.56
124475.92
101637.08
78699.401
56190.803
34632.475
14503.899
-3795.9938
-19979.932
-33923.892
-45693.88
-55350.167
-62930.805
-68555.35
-72416.948
-74754.705
-75830.546
-75913.485
-75272.534
-74166.04
-72754.709
-71075.84
-69136.333
-66987.243
-64642.162
-62106.911
-59368.023
-56425.339
-53333.426
-50176.293
-47020.538
-43909.472
-40875.711
-37940.952
-35119.639
-32420.759
-29848.755
-27403.836
-25083.668
-22884.608
-20801.705
-18828.926
-16959.479
-15185.891
-13500.055
-11894.296
-10361.75
-8895.2412
-7484.3562
-6113.3346
-4754.5192
-3407.1547
-2073.8618
-849.34598
80.941103
294053.53
293138.06
291290.22
288317.56
284152.91
278718.31
271929.41
263701.47
253954.03
242616.65
229635.81
214987.44
198692.16
180825.93
161535.62
141050.1
119682.5
97818.82
75899.764
54396.247
33774.92
14466.059
-3168.8343
-18863.354
-32466.905
-44016.617
-53583.881
-61197.35
-66948.82
-70999.231
-73556.561
-74855.527
-75141.871
-74662.648
-73672.481
-72357.675
-70777.878
-68940.719
-66904.144
-64682.283
-62271.169
-59623.452
-56727.813
-53670.734
-50551.186
-47425.018
-44335.099
-41312.447
-38379.309
-35551.71
-32840.609
-30252.448
-27789.389
-25450.065
-23231.204
-21128.349
-19135.815
-17246.807
-15453.821
-13749.151
-12125.115
-10573.886
-9086.6672
-7652.1031
-6255.7741
-4883.8174
-3549.8994
-2331.6716
-1352.4465
-467.93153
288001.89
287086.26
285231.44
282230.75
278016.01
272513.19
265645.84
257340.92
247531.25
236162.73
223204.29
208657.57
192566.23
175026.62
156197.1
136303.8
115641.68
94566.738
73480.73
52808.399
32970.201
14354.64
-2709.1545
-17973.488
-31282.152
-42640.544
-52113.478
-59729.25
-65562.234
-69750.125
-72476.369
-73952.708
-74404.357
-74059.496
-73161.674
-71923.854
-70426.076
-68674.175
-66734.416
-64631.103
-62339.141
-59769.827
-56915.769
-53902.942
-50830.885
-47743.034
-44680.761
-41674.586
-38748.046
-35919.019
-33200.438
-30600.656
-28123.651
-25769.224
-23534.523
-21415.411
-19406.549
-17501.449
-15692.751
-13973.024
-12335.028
-10771.15
-9273.1871
-7832.1417
-6439.6881
-5094.4167
-3817.4056
-2658.7366
-1631.9982
-573.66268
283009.24
282103.91
280257.2
277246.02
273000.33
267449.75
260525.27
252161.96
242303.74
230913.51
217979.55
203522.2
187602.44
170330.46
151871.74
132451.03
112351.32
91906.556
71488.109
51485.026
32281.105
14231.232
-2361.8803
-17266.277
-30329.481
-41530.942
-50918.543
-58521.827
-64405.374
-68690.977
-71543.638
-73156.804
-73738.862
-73503.476
-72678.122
-71492.007
-70053.932
-68369.695
-66513.972
-64529.852
-62343.874
-59824.757
-57009.382
-54055.83
-51035.336
-47989.42
-44957.063
-41969.485
-39052.002
-36224.364
-33501.31
-30892.625
-28403.891
-26037.678
-23790.581
-21658.489
-19636.39
-17718.166
-15896.902
-14165.571
-12517.308
-10944.622
-9441.2755
-8000.9932
-6619.2445
-5297.2294
-4046.211
-2876.6334
-1754.285
-622.79018
279076.23
278191.5
276366.18
273358.74
269096.75
263513.58
256545.86
248135.61
238238.95
226832.82
213919.66
199534.08
183750.25
166688.07
148518.2
129463.92
109798.97
89840.859
69938.176
50453.103
31741.521
14132.471
-2091.9918
-16712.917
-29582.813
-40662.86
-49981.875
-57568.192
-63482.067
-67835.109
-70779.161
-72493.807
-73174.447
-73023.664
-72255.253
-71104.22
-69698.729
-68061.232
-66277.61
-64405.447
-62303.74
-59814.026
-57039.928
-54151.095
-51182.639
-48176.984
-45172.854
-42202.93
-39293.986
-36467.694
-33742.084
-31127.432
-28630.552
-26255.152
-23998.314
-21855.979
-19823.274
-17894.337
-16062.668
-14321.508
-12664.322
-11084.621
-9577.554
-8138.4474
-6763.9693
-5455.1251
-4213.4777
-3028.5674
-1859.9813
-666.53426
276185.18
275330.86
273537.27
270542.85
266273.79
260667.6
253665.46
245217.21
235289.78
223870.36
210971.94
196639.45
180956.05
164048.41
146090.39
127303.79
107955.69
88351.671
68823.98
49715.55
31362.212
14074.284
-1881.3433
-16295.705
-29026.016
-40020.537
-49290.371
-56861.305
-62792.696
-67190.215
-70196.886
-71982.396
-72732.541
-72641.052
-71912.27
-70784.796
-69393.388
-67785.646
-66072.106
-64291.639
-62222.516
-59750.125
-57040.898
-54211.031
-51287.807
-48315.807
-45334.731
-42378.465
-39475.834
-36651.842
-33924.825
-31306.265
-28804.088
-26421.532
-24157.278
-22007.177
-19966.26
-18028.83
-16188.529
-14438.7
-12773.172
-11186.894
-9675.437
-8235.4606
-6865.1219
-5564.6455
-4332.2661
-3142.8101
-1950.0016
-705.76193
274302.51
273486.49
271728.99
268750.36
264478.54
258855.14
251826.29
243349.41
233398.56
221967.96
209077.59
194778.98
179160.93
162354.25
144534.53
125922.39
106780.46
87406.499
68122.082
49257.721
31136.329
14056.075
-1726.1083
-16007.992
-28650.708
-39593.833
-48833.764
-56393.818
-62334.531
-66758.694
-69804.037
-71633.812
-72427.053
-72371.042
-71665.55
-70551.409
-69164.704
-67575.979
-65931.138
-64201.285
-62124.668
-59676.158
-57034.687
-54249.722
-51359.573
-48410.944
-45444.906
-42497.153
-39599.843
-36778.29
-34049.98
-31428.344
-28921.867
-26534.371
-24265.002
-22109.592
-20062.949
-18119.423
-16272.756
-14516.402
-12844.362
-11251.78
-9734.8871
-8291.7718
-6923.0108
-5628.3757
-4405.8603
-3221.2597
-2021.424
-738.91836
273383.06
272603.77
270875.5
267908.04
263634.51
258000.25
250955.13
242461.2
232496.26
221058.12
208170.22
193887.3
178300.86
161543.58
143791.76
125265.32
106224.57
86963.332
67797.898
49052.785
31044.56
14065.24
-1633.2647
-15852.139
-28454.272
-39373.955
-48600.029
-56155.278
-62101.255
-66539.317
-69604.451
-71456.367
-72269.49
-72223.42
-71527.093
-70416.961
-69028.577
-67452.04
-65878.467
-64152.32
-62050.628
-59631.858
-57034.249
-54273.63
-51399.52
-48461.278
-45501.11
-42558.092
-39664.259
-36843.174
-34114.057
-31490.767
-28982.055
-26591.987
-24319.974
-22161.805
-20112.131
-18165.296
-16315.053
-14554.854
-12878.664
-11281.585
-9759.982
-8312.4815
-6942.3552
-5650.997
-4437.6832
-3259.9485
-2066.0654
-762.50939
544803.49
544280.89
543259.93
541609.1
539298.64
536285.85
532514.32
527916.14
522417.35
515934.95
508384.22
499679.37
489745.38
478527.81
465998.18
452163.84
437073.14
420809.64
403491.09
385247.55
366231.76
346614.68
326591.35
306383.05
286213.64
266299.98
246837.05
227993.95
209906.98
192676.8
176371.21
161032.18
146681.59
133324.5
120949.9