/*--------------------------------*- C++ -*----------------------------------*\
  =========                 |
  \\      /  F ield         | OpenFOAM: The Open Source CFD Toolbox
   \\    /   O peration     | Website:  https://openfoam.org
    \\  /    A nd           | Version:  12
     \\/     M anipulation  |
\*---------------------------------------------------------------------------*/
FoamFile
{
    format      ascii;
    class       volScalarField;
    location    "4";
    object      p;
}
// * * * * * * * * * * * * * * * * * * * * * * * * * * * * * * * * * * * * * //

dimensions      [0 2 -2 0 0 0 0];

internalField   nonuniform List<scalar> 
94133
(
3908.5944
17028.194
13877.152
17635.752
20514.667
13106.016
17083.808
12925.48
17057.166
14225.671
17299.721
20735.015
13233.451
17097.799
17476.171
15720.973
20486.355
16182.022
15548.861
17843.2
15900.753
16058.298
44385.361
5484.1966
-21261.372
56721.679
7734.5897
-25293.235
45705.427
6126.9483
-20469.701
166604.71
-43926.012
-192878.34
524583.15
218353.34
-30201.206
-205357.49
171181.45
-38972.224
-194163.51
605316.06
-266429.12
-836679.04
2805603.2
869065.88
-207983.57
-857101.54
641163.68
-250228.08
-831174.03
1787523.9
-1301557.9
-2898669.1
15173710
2967408.3
-1065193.2
-2921703.2
1887621.1
-1226231
-2823024.6
2325165.3
-5502206.7
-8288025.6
73178344
5906094.8
-4892451.6
-8317874
2578659.6
-5227376.6
-8149958.4
-10353204
-17626753
-19052721
1.2182956e+08
-6625759.2
-17001460
-18871932
-8700557.6
-16961616
-18715438
-17195103
-45848023
-36191473
-33078305
-1.2759843e+08
-50005003
-36287305
-32853839
-42202153
-35096198
-32613925
-34365740
-67919803
-51524791
-45801687
-5.2554975e+08
-77742514
-51455472
-45304698
-62847247
-49682689
-45070206
-48990927
-65817211
-58800119
-54297084
-1.3413514e+08
-68995140
-57991245
-53635098
-60098098
-56485941
-53354794
-56366673
-63728492
-61176272
-58641714
-51242902
-61627409
-59793710
-57958514
-58731256
-58914949
-57679593
-59264636
-63238620
-62040164
-60623983
-8333491
-59150494
-60579720
-60018681
-58987765
-60130040
-59779794
-60617484
-63133801
-62400732
-61510376
19679396
-58480636
-61074400
-61007163
-59392442
-60833111
-60811338
-61285764
-62852587
-62503147
-61889678
36521432
-58284178
-61379346
-61485284
-59644610
-61223973
-61319617
-61598670
-62501680
-62470308
-62032298
47496908
-58209096
-61541300
-61707450
-59772015
-61413801
-61558591
-61710069
-62230429
-62440741
-62075446
58072112
-58099328
-61617502
-61790752
-59705860
-61483536
-61642812
-61701865
-62382434
-62468132
-62097791
56410570
-58047044
-61600252
-61796063
-59668825
-61447327
-61631168
-61676347
-62662940
-62515074
-62098419
46109786
-58030796
-61483557
-61733547
-59504303
-61286142
-61519496
-61566944
-62506125
-62441094
-62061160
40477820
-57722964
-61211792
-61608117
-58933413
-60879787
-61277303
-61157183
-61825867
-62097317
-62074935
16737771
-57214675
-60658566
-61600231
-57253653
-59889133
-60966137
-59918371
-59356397
-61028750
-63406552
-16758130
-56023594
-59564601
-63343611
-52564179
-57486593
-61268477
-56425983
-48780670
-57516204
-73821905
-92521470
-51517885
-56530474
-75519464
-38770294
-50280730
-65748708
-45836132
2191145.2
-40287258
-1.4703359e+08
-5.8052474e+08
-12291524
-43096393
-1.822827e+08
11869100
-20621285
-95743116
-5077501.7
1.9531008e+08
63608845
-6.1385528e+08
1.9363341e+09
1.669584e+08
79105742
-1.0778866e+09
2.1497413e+08
96506511
-1.9579412e+08
1.4887689e+08
4.7221882e+08
6.2405218e+08
5.2724542e+08
2.0391435e+09
4.0871339e+08
4.9994875e+08
5.8107421e+09
4.594455e+08
4.0661327e+08
3.2118464e+08
6.9057917e+08
8.1593304e+08
7.7245551e+08
4.9606097e+08
5.7148346e+08
8.8978779e+08
6.0206155e+08
4.3236411e+08
5.4644485e+08
8.1442759e+08
9.4689696e+08
5.2097583e+08
5.1961111e+08
5.6125053e+08
5.4740897e+08
7.5903203e+08
4.2252742e+08
4.9466461e+08
9.5757377e+08
1.0123886e+09
4.2343673e+08
7.7610513e+08
5.7544425e+08
4.8519003e+08
7.1051547e+08
4.21618e+08
4.6394851e+08
1.0586534e+09
1.0633803e+09
3.6132629e+08
8.7897428e+08
5.8030968e+08
4.4193914e+08
6.8215033e+08
3.9963987e+08
4.2293445e+08
1.138375e+09
1.0646385e+09
3.015121e+08
8.8262431e+08
5.5126379e+08
3.8610291e+08
7.5078382e+08
3.6900896e+08
3.5605216e+08
1.2645107e+09
1.0342866e+09
2.3522298e+08
6.9845836e+08
4.8793318e+08
3.0350979e+08
9.0242634e+08
3.2438453e+08
2.3745546e+08
1.6576431e+09
1.0239022e+09
1.8416272e+08
6.4667891e+08
3.8620581e+08
1.8304154e+08
1.0957962e+09
2.6371935e+08
27611591
3.0297554e+09
8.0730221e+08
-5656153.1
8.9098861e+08
-26705985
-1.659744e+08
1.1661536e+09
-40174909
-2.3593033e+08
4.9265069e+09
-1.0664798e+10
-3.5622409e+09
-5.8408307e+09
-1.9091004e+09
-1.4541699e+09
1.5008005e+09
-3.7558967e+08
-5.4577616e+08
-8.8169291e+09
-1.6307067e+09
1.9597569e+08
81836022
4.069005e+08
65373570
-1.7355975e+08
2.1835824e+08
2.1509932e+08
1.4875691e+09
1.7794651e+08
4.0676315e+08
-3.0514516e+09
3.6159568e+08
-1.2057871e+09
-1.5398151e+08
1.736523e+10
1.7774326e+08
1.3151598e+09
2.2179162e+08
30917187
3.6891053e+08
4.3478755e+08
-3.3974061e+08
5.0496872e+09
-1.9545353e+08
1.139018e+08
2.2386748e+08
1.4253589e+08
4.1713829e+08
3.9460352e+08
4.4216078e+08
5.254887e+08
-78523394
1.3022045e+08
42433452
3.8212092e+08
1.9509071e+08
6.4616911e+08
2.8388812e+08
-8.7248567e+09
-3.5984863e+09
-2.3419838e+09
-1.0528413e+10
-2.0122797e+10
-4.571031e+09
-1.5102637e+09
-8.2501693e+08
-6.7080619e+08
-3.50893e+09
-2.744521e+09
-1.7366142e+09
4.3020558e+09
-2.3873171e+10
1.1550112e+10
3362948.7
-22198233
1.311086e+08
56117594
-36985990
-97760517
23424887
-1.6308043e+08
3434047.3
-2.2122249e+08
-18947873
1.4893374e+08
1.0112676e+09
1.2743341e+08
-1.9258931e+08
-4.2917314e+08
-9.0928886e+08
-29999788
-18995494
2357275.6
1.6643854e+09
1.3618586e+08
6.3486546e+08
1.3893485e+08
-2.8262094e+08
-1.175959e+08
-8.0562497e+08
-2.4132478e+09
-2.7078333e+08
-7865448
19419199
1750470.5
1.4446683e+08
80811154
1.541787e+08
99498016
-73208318
-8608032.7
-42369840
51344246
-89540634
76458545
3324182.3
82042343
1.829809e+08
1.2390091e+08
3.9977046e+08
4.6414122e+08
3.6229218e+08
3.7997332e+08
-2.9123846e+08
73485686
-7.5620659e+08
4.9138997e+08
1.7718373e+08
4.0377915e+08
5.7176141e+09
1.2635795e+08
2.0200194e+08
1.367294e+08
3.668113e+08
3.7329184e+08
4.0298448e+08
3.6586625e+08
-6.859759e+08
99685889
-1.50678e+08
3.90983e+08
3.2428425e+09
3.4638035e+08
1.5162552e+08
-5.6134115e+09
-4.8597006e+09
-5.9969552e+08
-2.591233e+09
-1.9570715e+09
-3.7696243e+10
-1.0580805e+09
1.7296425e+08
55484997
1.1296277e+08
2.1016706e+08
54622441
1.3048112e+08
1.483333e+08
5.2247852e+08
4.7964488e+08
6.5750136e+08
3.9594968e+08
6.1341466e+08
4.8425147e+08
3.0707038e+09
3.8662694e+08
6.7046945e+08
5.5808971e+09
5.3372267e+08
1.7574217e+10
8.7799657e+08
1.3215228e+09
3.9171012e+08
4.638126e+08
4.894385e+08
4.0627649e+08
4.343953e+08
1.0516437e+09
6.4342426e+08
4.2666821e+08
4.658645e+08
5.5222789e+08
5.0175736e+08
6.3303862e+08
3.3193449e+08
3.5291019e+08
4.1822317e+08
4.9255973e+08
5.0107758e+08
5.8418827e+09
2.4572895e+11
-6.634646e+09
-2.6088663e+10
-7.5777071e+09
-2.8038677e+09
-2.5634933e+10
-2.0691932e+09
-2.5525674e+09
-9.30666e+08
-2.2182732e+10
-4.1704055e+09
2.9831311e+10
-1.8291738e+09
-5.2459982e+08
-1.6002574e+09
-8.630299e+09
-1.846309e+10
-3.2932895e+10
-3.3190601e+10
-2.8515936e+09
-1.6444204e+09
2.4916389e+08
96151569
1.3058635e+08
1.348809e+08
2.2199981e+08
2.4544616e+08
2.9262584e+08
4.1860989e+08
2.6988026e+08
2.8929758e+08
4.219226e+08
1.4728371e+08
81425456
-15820293
43729565
2.1944163e+08
1.0910775e+08
2.121678e+08
3.863339e+08
2.7638041e+08
1.7489449e+08
4.1055378e+08
3.1279078e+08
2.0806133e+08
2.7617397e+08
2.7975558e+08
2.4485746e+08
2.814397e+08
3.0953603e+08
3.1666277e+08
3.0150258e+08
3.845615e+08
1.4204739e+08
3.0724426e+08
2.9797468e+08
3.3394668e+08
-1.023425e+10
-9.5550306e+08
-5.0481141e+09
-6.1274606e+09
-3.469761e+09
-2.1070727e+09
-7.0187474e+10
-1.2842368e+10
-3.0304508e+09
1.2996722e+09
2.3046393e+11
-1.9273463e+09
-9.5966241e+10
-8.6319035e+09
3.9383917e+08
2.6954269e+08
1.7498684e+08
2.7978381e+08
2.2494292e+08
2.9333055e+08
4.2452356e+08
3.0303399e+08
3.9484774e+08
3.2317545e+08
4.8343818e+08
-8.5011715e+09
-2.1653878e+09
1.0778175e+09
8.8891665e+10
-1.1549167e+09
2.1136799e+10
2.7824256e+08
1.5626244e+08
1.2575716e+08
2.251489e+08
1.6512052e+08
2.6166521e+08
2.8259658e+08
1.3279225e+08
1.8561628e+08
2.7750791e+08
1.6754072e+08
2.8885441e+08
3.189653e+08
2.6866733e+08
4.0443256e+08
2.9968075e+08
4.2401693e+08
2.2831624e+08
2.5509988e+08
3.0946274e+08
1.7914126e+08
4.0637857e+08
-4.0576388e+09
-1.3261245e+10
-6.6334516e+09
-7.3370274e+09
-5.0995277e+09
-6.1730741e+09
-5.9016777e+09
-1.7374695e+09
-1.3381772e+09
-2.6015912e+09
-1.6239462e+09
-1.956813e+09
-1.1408688e+09
-1.9814414e+09
3.3397229e+10
2.7317766e+10
-2.3173684e+10
-2.1202651e+10
-3.0979794e+10
-2.7703166e+09
2.4617621e+09
-2.6996379e+10
-2.3181291e+09
16019.935
16931.944
12520.78
12849.417
16102.412
13590.89
16641.565
12487.375
16236.821
13846.095
16648.59
17567.643
19533.667
17109.54
19766.585
17372.311
19692.014
20543.937
20753.494
12847.093
12399.608
13064.531
12252.966
16769.127
13361.495
16409.468
13979.026
16682.744
13297.46
16431.73
19443.047
17141.608
19743.269
17383.694
19692.606
17243.95
19701.854
20794.319
20797.279
16203.841
12870.301
16249.162
17114.501
19778.379
16027.914
14881.335
16006.27
16905.937
16318.609
11964.096
13260.106
15299.58
17803.368
16229.093
14113.265
16628.147
15471.912
16245.818
17450.101
16826.395
19594.835
17296.746
19588.095
16407.25
17884.224
16744.556
17450.619
20669.508
18307.814
13505.108
12751.986
18174.997
16612.139
19605.649
17192.818
19637.39
16788.486
17449.651
16641.435
17760.951
20597.116
18188.324
18565.816
12393.014
15505.917
16275.874
15740.136
16441.441
19706.211
16548.141
17984.595
18534.806
34686.54
16498.658
15949.182
29704.445
14646.177
15618.327
9579.2158
-1881.2215
17881.787
21410.508
39442.263
50250.434
16224.842
20191.042
16971.511
33340.82
15499.604
41048.327
17617.94
16072.54
16104.854
15104.946
9840.8382
-3444.6285
10661.506
-5299.3637
15930.841
-5407.7017
-8037.7576
21905.37
19632.904
51359.138
44670.389
15907.498
-8258.0015
-7065.1214
18285.895
40714.786
16466.356
34179.382
16010.666
15609.916
10256.764
-3304.1638
-5369.1411
46965.887
134928.86
38695.848
13409.586
101461.91
3468.1413
5040.2318
-14730.531
-26487.689
-101714.55
-124273.32
54686.185
70054.413
159719.96
204126.9
-17397.725
7123.6307
-19843.23
-24267.529
-105524.38
-17688.119
-112836.97
-25160.776
-121713.22
-135445.47
71942.129
62547.168
393000.84
208020.54
181540.05
-23567.975
-135429.8
-129763.15
56739.482
163582.11
15593.963
122387.51
12462.583
1024.0789
-16662.975
-20844.515
-105438.35
-24962.153
-126897.57
193935.11
542046.55
143685.29
-3390.8879
376197.95
-61767.201
-47700.35
-158261.44
-188665.69
-505471.84
-185610.17
-570693.2
228868.58
556948.88
292333.43
640521.75
1768561.6
860557.85
-204969.39
-594942.43
-613166.08
297199.34
260043.49
1865785.6
885412.89
758750.44
-198305.53
-613683.07
-599883.46
233687.85
673425.23
9324.2747
-8339.0886
468499.91
-27477.834
-85288.977
-163173.91
-44924.57
-164070.76
-509078.26
-191500.52
-594581.02
764735.73
1872726.3
509186.01
-112023.01
1132429.8
-515494.64
-286421.44
-719348.65
-942070.99
-1929329.2
-805734.02
-2107312.7
896140.6
2696182.1
1226569.3
2288343.3
9303712
3402131.3
-856103.03
-2160939.3
-2183158.6
1265273.8
1071188.1
9802722.8
3536270.7
7341357.3
2811129.3
-839190.63
-2184324.1
-2137295.3
942558.27
2391205.8
-62250.088
349875.45
-144122.25
1491331.6
-377822.1
647784.85
-595922.48
-716805.46
-289188.49
-832982.75
-1869678.9
-948329.36
-2102744.7
2414393.9
4065116.8
1392300.3
-818602.85
1648160.1
-3020070.7
-1374190.8
-2616717.6
-4056369.6
-6042210.2
-2834408.3
-6330661
2995348.9
14147630
4649853
5483110.1
44657930
9864567.1
-2920472.9
-6409963
-6529430
4854286.9
10189301
3749961.2
49879179
10405543
28180873
7245910.3
-2863118.5
-6523980
-6430438.6
3147380.8
5611416.7
-632280.27
731543.12
-926130.32
2753994.6
-2569958.9
217154.02
-3172241.3
-2533545.8
-1384856.3
-3711687
-5934305.2
-4037751.9
-6376248
4206267.3
-1618341.2
1145195.1
-4509791.2
-6091671
-12759833
-5681894.1
-7754524.8
-13851774
-15584937
-8194869.3
-15872506
5975881.8
63734778
11679769
676614.1
1.1281291e+08
8439905.1
-8328964.8
-15865137
-15785005
12409480
38559863
8247329.1
1.2953775e+08
9475944.6
63216098
4520203.5
-8202525.8
-15750822
-15633543
6163075.1
1825477.3
-3911145.5
-535035.99
-4604615.7
-3480859.9
-11745361
-7278366.5
-12120681
-7683422
-5603522.3
-13112186
-15239406
-13324130
-15043946
-15591556
-13152291
-13914173
-7351915.9
-36888306
-11510293
-16978233
-35678347
-32273762
-17772055
-18914276
-31483098
-29958922
-19081331
-29623910
-5530347.7
1.0754004e+08
566742.13
-38289641
-81576069
-42781471
-18922946
-29558777
-29394753
1375383.8
62962522
-1638012.5
-1.0274935e+08
-43093534
-36784923
-36204909
-18756491
-29334906
-29257398
-29171511
-3729220.9
-34023694
-15890774
-11774428
-15946699
-33398232
-31161992
-31263108
-30441519
-18488586
-17120149
-18306246
-30567257
-29374175
-30015347
-29289380
-29118627
-16407197
-30334212
-30025457
-48052158
-72288434
-44397889
-37434091
-64058184
-50852163
-36069599
-33655444
-48328987
-43968829
-33163414
-43108103
-50388881
-1.2817253e+08
-58244279
-74383473
-2.0991209e+08
-88176512
-32907704
-42953027
-42606197
-59023921
-72987157
-48766571
-4.4261537e+08
-93636859
-1.4492299e+08
-72471034
-32230183
-32678011
-42529462
-41227367
-42338659
-45233542
-67522704
-36277801
-38231011
-35210951
-60711556
-48933819
-55072038
-47572298
-33021993
-34298173
-32964719
-46749936
-43007002
-45690722
-43048960
-42287216
-35041755
-47403967
-45941711
-74388255
-70883930
-67044614
-54133078
-67944565
-59977951
-51501428
-46901611
-57829618
-53708095
-45987586
-52843749
-74966711
-1.7807167e+08
-90156912
-68192183
-2383286.5
-73947950
-45397778
-52621361
-52105135
-98335026
-81389837
-72479639
-1.719353e+08
-80572737
-47641738
-64195413
-43935104
-45113728
-51988643
-50724236
-51744341
-68244238
-61414153
-51890150
-58217221
-50666295
-61032028
-56867234
-61147352
-56356953
-45826702
-48709448
-45922576
-55400045
-52357537
-54859765
-52527923
-51717529
-50531882
-56334937
-55123437
-69407230
-67380458
-67395819
-60939139
-66164110
-62396964
-59055515
-55328779
-61186121
-58640704
-54528367
-58068582
-66230220
25312526
-69327632
-63433365
68847696
-59924117
-53763002
-57849184
-57295988
-74946871
-14867579
-61922281
-65892958
-63776438
6724919.7
-57102886
-52494869
-53383046
-57159275
-56413942
-56898678
-60015692
-57668982
-57629158
-61206632
-57391329
-58859066
-58897843
-61440761
-59280535
-53923795
-56129045
-54089590
-58482493
-57207933
-58577540
-57347171
-56875718
-57405189
-59367975
-58750206
-66928455
-66774965
-65877893
-62641902
-65553032
-63060271
-61586795
-59360995
-62322859
-60797049
-58857140
-60454469
-62984636
85819320
-58093640
-62640105
1.0776851e+08
-55010138
-58098516
-60267095
-59768804
-61494001
7750613.1
-56193769
-16087503
-57637176
-4144207.5
-55401239
-57334950
-57702830
-59638539
-59286583
-59406289
-57332920
-57451141
-59189200
-61502671
-59690602
-58890334
-59920640
-61987473
-60594121
-57948595
-59109575
-58082216
-59885567
-59517918
-60241992
-59627057
-59388652
-59789899
-60705058
-60361011
-66571776
-66637894
-65431239
-63138528
-65325545
-63267480
-62471113
-61107735
-62741301
-61721672
-60804228
-61503987
-62529870
1.1901451e+08
-54457466
-62551377
1.3021536e+08
-53509960
-60146610
-61352005
-60936039
-56909520
-4751275.9
-55323103
15113976
-55570977
-14606902
-55606003
-59732927
-59797109
-60823802
-60668890
-60631164
-57561427
-57989458
-60128737
-62063095
-60810859
-59319174
-60619850
-62307244
-61271668
-59880351
-60507962
-59983664
-60691707
-60658370
-61074108
-60743105
-60618735
-60921741
-61376677
-61161162
-66727006
-66302193
-65305084
-63282853
-65002944
-63231824
-62789882
-61851990
-62831851
-62093229
-61655226
-61944773
-62612907
1.4003707e+08
-53274349
-62328400
1.4513155e+08
-52858964
-61115590
-61824539
-61489470
-55228170
-14655695
-55650620
34614792
-54587541
-19825442
-55975781
-60882453
-60823276
-61396652
-61329671
-61235753
-58083406
-58373850
-60748605
-62325558
-61378273
-59614901
-61030556
-62446373
-61599788
-60839305
-61205182
-60919274
-61147736
-61229194
-61477339
-61291701
-61224829
-61480275
-61691740
-61542938
-66143936
-65662245
-64885009
-63192618
-64466275
-63036954
-62821308
-62138700
-62744989
-62207462
-62003169
-62102389
-62279527
1.5274747e+08
-52762885
-62128622
1.5294138e+08
-52682250
-61574000
-62009783
-61744955
-54427657
-21214977
-56032362
46316359
-54098405
-24428200
-56289705
-61430793
-61331298
-61668127
-61635906
-61530004
-58420132
-58649868
-61101634
-62415371
-61646345
-59791600
-61239335
-62488942
-61725360
-61320050
-61536837
-61375913
-61379913
-61508888
-61645860
-61543436
-61516694
-61735374
-61805112
-61697810
-65445803
-65073203
-64319578
-62985798
-64000580
-62873857
-62715674
-62216802
-62651393
-62227387
-62119527
-62143827
-61977364
1.5981306e+08
-52620815
-61800121
1.5923046e+08
-52436103
-61781440
-62069328
-61847117
-53969462
-26264853
-56292017
56178307
-53598691
-27470139
-56302172
-61679314
-61572834
-61778865
-61754742
-61649123
-58616936
-58586518
-61269749
-62382787
-61729209
-59757765
-61313417
-62243877
-61707120
-61549576
-61662044
-61576993
-61472789
-61622197
-61671363
-61630521
-61632424
-61805183
-61773336
-61709606
-64913719
-65143097
-63924691
-62862056
-64058622
-62890751
-62645887
-62229818
-62667818
-62247895
-62147763
-62166286
-61640010
1.6678522e+08
-52308854
-61697472
1.6118683e+08
-52288007
-61858360
-62092709
-61870301
-53454775
-28683715
-56256915
57955179
-53422556
-27580553
-56222583
-61765370
-61660280
-61800456
-61778890
-61662276
-58501409
-58512895
-61322932
-62111918
-61692841
-59705498
-61299978
-62168571
-61674877
-61633109
-61666025
-61636257
-61467411
-61629441
-61649327
-61626692
-61642123
-61756813
-61739027
-61684426
-65454641
-66150417
-64209266
-62922969
-64647142
-63049888
-62688307
-62256957
-62769979
-62281167
-62174312
-62190397
-61893931
1.6670781e+08
-52221067
-62257283
1.5660428e+08
-52330741
-61867959
-62101986
-61838076
-53424153
-28119796
-56184098
49436096
-53691440
-26064753
-56045634
-61777898
-61652665
-61755905
-61747222
-61586623
-58478129
-58355052
-61280567
-62139847
-61669137
-59582093
-61168049
-62187522
-61613516
-61616149
-61639922
-61613085
-61340446
-61535472
-61568163
-61528143
-61558768
-61735614
-61690156
-61611264
-66082133
-65896214
-64696630
-63085708
-64656043
-63112473
-62792909
-62285268
-62802661
-62276253
-62191663
-62179519
-62179981
1.6097023e+08
-52304615
-62032402
1.5082242e+08
-52218623
-61820487
-62073211
-61748683
-53757694
-24688747
-55937092
40860449
-53816863
-20786953
-55493600
-61728851
-61550946
-61643744
-61658893
-61400930
-58272945
-57918073
-61113097
-62147608
-61572275
-59179444
-60821243
-62071387
-61317606
-61492539
-61521984
-61480575
-61018589
-61302419
-61263293
-61252916
-61351230
-61652330
-61407891
-61310218
-65768831
-65357941
-64581564
-63090145
-64243127
-62884537
-62782015
-62265615
-62613351
-62213855
-62171231
-62148232
-61884995
1.5611921e+08
-52023685
-61369168
1.3873083e+08
-51830759
-61720184
-62041611
-61686716
-53682444
-19441345
-55192754
27854448
-53642255
-12208020
-54050951
-61636741
-61337552
-61551253
-61695089
-61151570
-57599973
-56344808
-60665431
-61824016
-61156255
-57857148
-59891473
-60817675
-60294248
-61214916
-61113701
-61139608
-60222227
-60886657
-60345936
-60648119
-61034351
-61248276
-60385314
-60357938
-64957214
-63332898
-63958157
-62735944
-62441005
-61758044
-62498718
-62194524
-61797043
-62364184
-62161663
-62644985
-60997079
1.3680894e+08
-51933278
-59404633
1.1686194e+08
-52080300
-61746679
-62752130
-62718537
-53834569
-7779258.7
-53496612
-5434680.7
-54242179
-413499.56
-51081056
-61846391
-61119191
-62518934
-63817381
-61452449
-55632608
-52273355
-59488035
-60100598
-59809481
-54248016
-57458594
-56646857
-57284561
-60763800
-59929955
-60422228
-58312678
-60485101
-57835549
-59491391
-61040601
-59895739
-57326527
-57667200
-62159747
-54387442
-61349748
-61117271
-54347239
-57125591
-61375885
-62616279
-58917572
-65375693
-63176601
-68061206
-58301144
1.1397511e+08
-52012017
-51466627
76815363
-51362700
-63574938
-69215300
-70581025
-54315185
6302209.6
-49847404
-58904936
-54811744
12722168
-43978112
-65374614
-61871216
-70071284
-76325959
-65631597
-50467433
-41312081
-56357398
-54660733
-55877880
-43599352
-50382078
-44620843
-48309770
-60461886
-56696291
-59056357
-53043410
-61050205
-50609079
-56964792
-63718815
-55886142
-48147084
-49794596
-50147441
-19602068
-50019892
-54489510
-19443439
-35814059
-57337025
-67657596
-45960320
-85311702
-71899515
-1.0241581e+08
-47471182
56874110
-50772098
-20187055
-1.2342593e+08
-37051457
-76295581
-1.1347194e+08
-1.3432676e+08
-54959749
7903926.6
-40342710
-3.8525008e+08
-45664704
-18105635
-17129958
-85413753
-68665665
-1.2976649e+08
-1.8147497e+08
-95520574
-36544007
-10328678
-46737579
-39015435
-43848993
-9711622.4
-23301925
-5598950.9
-16325676
-61723821
-46950602
-55787880
-32447941
-68363656
-23758962
-48302343
-82765415
-43586184
-15780415
-21137598
5046141
1.4826776e+08
26017179
2192048.5
-2711782.2
33871988
-34264014
-32165699
-45798935
-14879137
-1.2572157e+08
-2.8745194e+08
33771316
-5656634.3
-17958450
-10675120
46551928
13455707
-24128082
-8843118.5
-26187297
1.3255836e+08
53812418
1.1973144e+08
63112419
-1.1131595e+08
-45103899
-1.4145959e+08
15612452
-2.33863e+08
16303202
-4.2232112e+08
-3.3549412e+08
-1.8158323e+08
-1.6923896e+08
-2.02176e+08
-2.1231378e+08
-2.6866254e+08
-2.4701199e+08
-1.1341727e+08
-1.8354792e+08
-2.250096e+08
-5.706109e+08
-1.129552e+08
-1.6365121e+08
-3.4069838e+08
-1.3441283e+08
-26095933
-88721683
22097965
-3.7810928e+08
47686027
-1.4398326e+08
11336954
1.5770565e+08
-1.6978762e+08
2549480.8
1.0244958e+08
85452029
2.141917e+08
4.1584581e+08
2.6116406e+08
1.8325494e+08
1.6420867e+08
2.6277043e+08
1.5487347e+08
85196399
56548893
2.2123053e+08
-3.5886404e+08
77329167
2.3566214e+09
3.3011346e+09
3.243233e+08
2.6605963e+08
3.5712209e+08
2.8066015e+08
3.1825244e+08
3.647388e+08
-3.398009e+09
-1.1436889e+09
-1.0098666e+09
-7.8143741e+08
-1.9823332e+09
-1.682271e+09
-1.5417828e+09
2.752216e+09
6.449369e+09
4.4346514e+08
3.7212815e+08
1.8377369e+09
5.8707748e+08
2.877651e+08
3.916831e+08
9.957603e+08
-2.6410317e+09
-1.8627586e+09
-9.0785618e+08
-1.6023471e+09
-1.5831111e+09
-1.2847014e+09
-3.0194493e+09
2.4164365e+08
4.446084e+08
2.8648469e+08
1.9382479e+08
2.2360065e+08
2.9061738e+08
1.9711043e+08
2.6162315e+08
3.0111406e+08
58482745
2.9288829e+08
6.0451599e+08
4.9120348e+08
6.7063171e+08
4.68387e+08
4.5993525e+08
5.5941098e+08
5.6377957e+08
4.2715628e+08
4.8057737e+08
3.9391271e+08
7.23841e+08
3.0695053e+10
5.4917566e+08
1.0014362e+09
5.7021439e+08
8.0748799e+08
6.8446152e+08
2.7423116e+09
5.7918531e+08
4.1685317e+08
4.6381171e+08
6.509795e+08
9.493883e+08
5.3999809e+08
5.6983788e+08
4.9938546e+08
5.194425e+08
6.3654953e+09
7.4741322e+08
7.1732735e+08
5.8706961e+08
1.0430787e+09
3.4506098e+08
1.1474852e+09
5.1597955e+08
2.0723338e+09
9.1248215e+08
1.1188916e+09
1.6455056e+09
5.3462913e+09
9.2889734e+09
6.9193033e+08
4.5175338e+08
4.6446906e+10
4.5086204e+08
4.4196375e+08
4.2195974e+08
4.9333088e+08
5.5337753e+08
4.8374142e+08
5.072952e+08
3.8128238e+09
4.0186204e+08
4.043532e+08
5.7582677e+08
9.438029e+08
4.688588e+08
5.6356566e+08
2.5850203e+09
2.9984852e+10
5.2832039e+09
3.1316596e+09
1.8049502e+09
4.7958971e+08
5.6154412e+08
5.5564815e+08
7.1015514e+08
8.1380448e+08
7.0119297e+08
8.0508897e+08
5.9611143e+08
5.0398605e+08
6.8285255e+08
5.4161947e+08
7.0420364e+08
3.4205374e+09
5.317398e+08
7.8872109e+08
-1.446147e+10
4.4991233e+08
1.0578509e+09
5.6141281e+08
5.7207028e+08
4.8221532e+08
4.1313621e+08
4.0438921e+08
4.4052482e+08
5.9558541e+08
5.6003826e+08
5.1826238e+08
6.4411771e+08
8.4887596e+08
5.2505593e+08
6.6347817e+08
7.3836147e+08
5.7338527e+08
8.1412808e+08
4.9403342e+08
5.4723389e+08
4.2749372e+08
4.7155632e+08
5.9502376e+08
5.0476243e+08
8.4819757e+08
9.6262977e+08
8.4027881e+08
9.4905864e+08
4.7505965e+08
4.0994169e+08
5.0631152e+08
4.3255261e+08
8.2246425e+08
-7.3342807e+09
4.5911959e+08
9.3987035e+08
-5.5528274e+09
7.0396923e+08
5.5485206e+08
4.4253903e+08
4.822964e+08
4.1574435e+08
4.8416767e+08
7.2562841e+08
5.3653003e+08
5.0432489e+08
4.9108802e+08
4.7556996e+08
8.7872395e+08
6.9004839e+08
5.7613033e+08
8.1860313e+08
7.2316751e+08
6.0183961e+08
7.7688076e+08
4.6375573e+08
5.9593602e+08
4.2271664e+08
4.4657729e+08
5.9058727e+08
4.7140687e+08
9.9810933e+08
1.0833528e+09
9.8367121e+08
1.0655557e+09
3.9192621e+08
3.4704206e+08
4.1369225e+08
3.6665923e+08
9.76181e+08
-5.6251489e+09
7.3175773e+08
1.0593955e+09
-6.4382962e+09
8.4355813e+08
4.7487341e+08
3.7607548e+08
4.2989903e+08
7.6126758e+08
5.3652946e+08
8.8514285e+08
4.6026197e+08
4.6742903e+08
4.4760343e+08
4.3877035e+08
6.3808512e+08
5.4261099e+08
6.045259e+08
7.6671787e+08
6.8218015e+08
5.9884931e+08
7.2561415e+08
4.4002618e+08
5.8896065e+08
4.0200494e+08
4.113115e+08
5.7603531e+08
4.3490639e+08
1.1076596e+09
1.1775549e+09
1.0895193e+09
1.1558585e+09
3.3263751e+08
2.9032538e+08
3.5185613e+08
3.0828306e+08
1.0827144e+09
-6.4631773e+09
8.5100759e+08
1.1477565e+09
-6.1488427e+09
8.7324409e+08
4.2355184e+08
3.1745154e+08
3.7410197e+08
8.9133653e+08
4.5573487e+08
9.0680868e+08
5.2896882e+08
4.2702453e+08
3.9439279e+08
3.8111715e+08
5.3836264e+08
6.0965602e+08
5.9832526e+08
7.2608229e+08
7.2484807e+08
5.822911e+08
7.895304e+08
3.9896979e+08
5.7475972e+08
3.7388782e+08
3.5247558e+08
5.5339375e+08
3.7616182e+08
1.2029953e+09
1.3093998e+09
1.1808472e+09
1.278196e+09
2.7461453e+08
2.2829695e+08
2.9247866e+08
2.4508813e+08
1.1716063e+09
-6.0966038e+09
8.706923e+08
1.2686176e+09
-5.981855e+09
7.5317836e+08
3.6594102e+08
2.523825e+08
2.9969003e+08
9.0197354e+08
5.7358926e+08
7.2011453e+08
5.9943067e+08
3.6127571e+08
3.1573069e+08
2.8156705e+08
6.583894e+08
8.5956552e+08
5.8031607e+08
8.0963116e+08
8.4275475e+08
5.5293779e+08
9.9654365e+08
3.3218499e+08
5.4312976e+08
3.3105701e+08
2.5099435e+08
4.668698e+08
2.7359866e+08
1.3669125e+09
1.6881725e+09
1.3312375e+09
1.6111968e+09
2.1251012e+08
1.8231791e+08
2.2916318e+08
1.9591403e+08
1.3205318e+09
-5.9180376e+09
7.3062034e+08
1.6189034e+09
-4.773228e+09
7.1713499e+08
2.8852741e+08
1.9306593e+08
2.0015743e+08
6.8447605e+08
6.6251996e+08
6.0466196e+08
6.9342564e+08
2.4684056e+08
2.0102772e+08
1.0644433e+08
1.0185526e+09
1.3011787e+09
5.5013478e+08
1.0353016e+09
1.0654285e+09
5.2046125e+08
1.3040854e+09
2.1532105e+08
4.3059893e+08
2.7680828e+08
71736850
2.4010296e+08
90119347
1.8840822e+09
3.0933569e+09
1.7830591e+09
2.8017976e+09
1.8258915e+08
3.0918889e+08
1.931607e+08
2.3415211e+08
1.8020622e+09
-4.3562436e+09
7.4438142e+08
2.9546188e+09
-9.0283115e+09
1.3807e+09
1.8649112e+08
1.087677e+08
-61084266
6.2318927e+08
7.2708368e+08
1.1253191e+09
8.4811225e+08
45268158
-89724552
-1.7073241e+08
1.3374741e+09
1.4382066e+09
5.1168521e+08
1.3416962e+09
1.1541438e+09
2.0473473e+08
1.655754e+09
10981506
1.5873249e+08
-16634571
-1.9400653e+08
-97058049
-1.7800433e+08
3.8384976e+09
6.8448837e+09
3.4475679e+09
6.6547887e+09
-7.1468887e+09
4.4790749e+08
-7.4753519e+09
-2.7969839e+09
2.4741949e+08
-2.023202e+09
3.6455125e+09
-1.6040052e+10
1.598592e+09
5.6556132e+09
1.3947431e+11
-4.5491639e+09
1.0866882e+09
1.2339222e+09
1.8828599e+08
4.6146634e+09
-4.6390448e+09
-1.3485252e+09
-1.3912144e+09
-1.423352e+08
-2.0965358e+09
-1.3737242e+09
1.3270185e+09
8.3953046e+08
-4.0786329e+09
-6.3881019e+08
-2.4183914e+08
-1.2553437e+09
-5.2447447e+08
1.4687833e+09
2.1883426e+09
1.6679487e+08
1.7419233e+09
1.2381833e+09
-1.5586032e+08
3.6278431e+09
-2.4193107e+08
-1.1992645e+08
-2.2761931e+08
-4.3099392e+08
-4.5206969e+08
7.9348932e+09
8.6989871e+09
-1.3647861e+10
-1.5776957e+10
-8.4842434e+09
-4.5716484e+09
-1.6371718e+09
7.8022035e+09
4.3085602e+10
1.0584762e+10
6.6984129e+09
-1.4538457e+10
-5.163556e+09
-2.3830416e+09
-1.9927154e+09
-1.1362641e+10
-4.2777791e+09
-3.0213817e+09
-1.6345011e+09
-2.7686602e+10
-3.5592178e+09
-8.7472065e+09
-7.9546487e+10
4.6806162e+10
-6.4915781e+08
2.6184194e+10
6.2427114e+09
9.9494417e+09
1.9546413e+10
-3.3046261e+08
4.3752153e+09
-1.6516921e+09
-2.0167709e+10
-5.982318e+09
-6.3637957e+09
-3.1458916e+09
-2.1069582e+09
-1.8039605e+09
2.5285503e+08
99485765
1.4532269e+08
2.2769723e+08
2.5954246e+08
1.9163361e+08
1.4505009e+08
2.661402e+08
1.6637303e+08
2.6709136e+08
2.5431074e+08
1.3409174e+08
86183742
99414968
1.1024862e+08
1.0203008e+08
1.2880673e+08
1.1767126e+08
3.0398563e+08
4.3318313e+08
3.3628836e+08
4.227852e+08
2.9665381e+08
4.3400609e+08
2.7959852e+08
4.2120866e+08
3.0141307e+08
3.36017e+08
4.0896312e+08
4.1806777e+08
3.3728117e+08
2.946414e+08
4.2261556e+08
91062828
18302251
57666948
-97952023
-55012365
-1.3062642e+08
-12989709
-36191297
14801484
2.1617576e+08
4.8956308e+08
2.793695e+08
3.90516e+08
2.0765587e+08
3.1891758e+08
1.7607422e+08
10927861
2.4738928e+08
2.8972971e+08
94130438
1.4205477e+08
2.9843974e+08
2.9629146e+08
2.3725547e+08
2.1459085e+08
2.7990332e+08
2.4049058e+08
2.9759565e+08
2.7591336e+08
3.4002297e+08
4.9854572e+08
3.6410249e+08
5.2848763e+08
3.3080558e+08
4.1121457e+08
3.4479546e+08
3.4587674e+08
4.2680827e+08
3.9140911e+08
3.6257254e+08
3.5173073e+08
3.9265306e+08
3.352253e+08
3.4070038e+08
4.1797393e+08
3.8846461e+08
3.5190986e+08
3.2922815e+08
3.8767956e+08
3.2231469e+08
3.3700376e+08
4.2494293e+08
-1.8770996e+08
3.717261e+08
2.8448919e+08
2.9933073e+08
-5.7224479e+09
-3.0138929e+09
-1.245319e+10
-5.8550781e+09
-4.9353527e+09
-4.5199449e+10
-4.4079696e+09
-6.7321121e+08
-1.0869099e+09
-4.8951334e+08
-1.8382343e+09
-1.5186517e+09
-3.1833004e+09
-8.4875941e+09
-9.100986e+09
-1.6592342e+10
1.1811442e+11
-1.2782251e+11
-1.7958423e+10
4.7153556e+08
1.5872984e+09
4.8927466e+08
1.093824e+09
4.1314078e+08
1.4069781e+09
5.892163e+08
4.0168301e+08
1.7403537e+08
2.735133e+08
3.0894239e+08
2.2577533e+08
2.9865119e+08
3.7609306e+08
4.6213844e+08