/*--------------------------------*- C++ -*----------------------------------*\
  =========                 |
  \\      /  F ield         | OpenFOAM: The Open Source CFD Toolbox
   \\    /   O peration     | Website:  https://openfoam.org
    \\  /    A nd           | Version:  12
     \\/     M anipulation  |
\*---------------------------------------------------------------------------*/
FoamFile
{
    format      ascii;
    class       surfaceScalarField;
    location    "4";
    object      phi;
}
// * * * * * * * * * * * * * * * * * * * * * * * * * * * * * * * * * * * * * //

dimensions      [0 3 -1 0 0 0 0];

internalField   nonuniform List<scalar> 
279700
(
-4.9907081
-3.9005389
-1.1387232
-4.7097632
-2.1885628
3.1557504
-0.73835754
-0.56415331
0.81861825
0.92553971
1.8790322
-3.1433742
0.38221303
0.13560341
-0.21999979
4.9853251
-5.3896234
0.30949747
0.33297757
-0.8385879
4.0048594
-0.92431044
0.93130526
-3.1742622
-1.4518386
0.50070127
-0.13900415
1.0797922
-0.44872904
-2.5885651
4.6468612
-0.86036466
-0.694948
1.3397135
-1.6651357
3.4623653
-1.3423857
-1.8131793
0.078369797
-0.13015011
-0.0025715233
-4.7100003
4.7520181
0.15907098
-0.016853292
2.6304228
0.33041946
-3.1692816
4.3170134
-0.13832415
-3.8907754
-1.2660485
-0.78954507
-9.8290811
12.783777
-0.033948475
-0.72882215
-1.5583
0.32385221
-7.044896
-0.36548344
5.8667867
2.8153839
0.88915814
-2.510118
-0.84897093
4.3924613
0.42298003
-2.3212643
0.22215689
-0.1790487
-5.0824146
5.391525
-0.0053102658
-0.3372521
4.9082843
3.3969023
-6.1926517
7.1252792
-2.6891526
-6.5419474
-0.56712213
0.050489964
-8.8469396
8.7574531
-0.41051699
1.024557
1.0807434
-9.6882126
7.4732342
10.131101
0.24907233
-9.2337842
0.25328296
0.56493906
-11.643773
10.634317
0.1605416
0.043153314
-10.473526
0.051644381
-7.1926577
5.2722172
-0.012569982
12.367294
5.8060859
-8.392108
-2.4165256
7.6777285
2.7393433
-5.4065203
-0.34153063
-9.0926735
-0.42385156
9.0696771
0.11225079
0.68617026
-1.6970246
0.5302854
-5.6381278
3.7441614
3.0696042
10.053061
5.4441291
-13.383933
16.457944
-5.8634608
-12.70643
-2.6903083
1.695269
-18.454997
17.717362
-1.7854548
3.5196077
-9.3197487
-13.574816
3.58039
12.165269
7.1521425
-21.832867
17.154103
1.5997536
22.271492
1.0340887
-20.224293
1.2737768
-0.82124401
-23.096532
20.967804
1.2131071
0.46551314
-21.629728
-0.20577798
-15.886171
13.797187
-0.10543917
24.032463
10.540672
-13.716436
-6.2278099
15.898151
6.4346521
-12.926364
-2.2899428
-18.942136
-1.7115685
18.259408
1.7474554
2.9405656
-10.528947
4.5530945
-13.077683
12.698005
6.359622
14.733364
-34.041308
23.462626
36.023388
-12.812801
-27.36323
-7.2992233
4.9915507
-34.894617
32.925701
-4.7550018
9.0337669
-29.260276
-1.5731098
-26.074421
20.796226
0.038990224
36.075112
10.33774
-8.6531717
59.402673
-0.88705132
-41.944785
-18.254247
-44.877656
30.625296
3.8210162
1.4591171
-35.924504
44.89786
-3.3291332
2.9036683
-43.440272
39.079288
0.30397999
4.4836216
-32.145806
0.056507202
-28.438644
24.638213
-0.70623499
36.598237
20.800205
-33.461916
-9.6672216
35.552554
10.783372
-24.005307
-5.5937339
-34.310236
-3.68239
32.833402
3.3841504
7.3691868
-33.489135
3.6217227
-22.789849
20.12798
-7.9210909
40.453263
25.540052
-72.93937
31.759812
73.728181
-23.508398
-34.579972
7.3328107
-18.853219
-60.717633
55.381292
25.065256
-8.207364
-59.9917
-12.471159
-33.887181
33.556846
3.3783588
69.416794
100.82294
8.3039305
106.76149
8.407779
-125.78147
-98.514479
-102.3466
6.1673204
53.269903
2.8154001
-59.865052
99.95928
-12.777952
4.0350286
-77.326068
67.30139
0.80011884
17.967871
-58.152207
0.038389565
-43.293233
34.140281
-0.091685718
67.358683
35.085991
-74.985482
-24.00715
72.469256
29.68784
-38.250536
-17.934762
-63.798174
-7.5840726
57.157947
8.35742
23.801819
-67.109965
3.9345544
-40.138868
37.995202
-13.847978
79.16795
61.503017
-156.71068
36.236119
144.6629
-55.495426
-30.195368
15.550757
-55.549795
-101.76705
86.640037
69.833963
-14.706891
-109.24131
-16.018146
-47.284132
43.783299
2.9931894
125.76919
234.1069
24.70793
315.56164
30.316186
-274.85492
-329.83754
-233.88826
14.179069
73.029312
10.789496
-69.699918
205.59057
-43.704461
4.2781416
-123.32322
106.38086
0.73857308
55.630384
-102.02938
1.2283489
-57.323324
42.939935
-1.2835677
116.46828
41.176542
-160.07989
-52.355404
143.32892
64.188311
-36.258302
-52.051041
-105.57764
-14.249616
90.388041
15.6151
65.875414
-92.285005
2.275305
-51.687069
37.738654
-2.2324926
106.19091
99.998042
-264.4689
-36.139593
213.71892
-90.91434
77.806421
17.006537
-126.52066
-123.81841
99.922325
151.34886
-17.937715
-147.67112
9.4946639
-50.740029
41.119603
-5.366849
153.16495
449.38619
81.98631
919.53704
84.711584
-436.60019
-1099.0208
-432.43061
26.425855
0.75814234
12.682748
58.882195
333.68168
-116.89819
4.1255997
-155.76284
122.07698
2.1325202
144.32572
-164.92728
2.3829541
-55.311895
39.224714
-2.2895779
180.92114
-22.693581
-258.7188
-74.738514
223.94684
72.30951
59.894609
-124.56866
-130.7376
-18.555906
105.64681
20.558608
147.65697
-153.44175
2.080266
-52.080208
37.263239
0.05782602
166.12043
38.307817
-189.85653
-243.2364
131.7174
-32.636458
295.70429
6.2116256
-218.45893
-53.252977
40.598055
233.98812
-9.0854447
-185.66951
-1.2606065
-15.939442
10.000745
-0.21204081
193.08263
13.770662
-145.42328
620.06855
-118.37585
488.4851
-858.52518
-248.43499
14.918703
-299.79862
-13.600635
365.13269
181.78282
23.780813
-249.34412
-82.936608
61.393804
252.59171
-5.4856576
-219.16056
1.9198011
-23.792759
16.323135
-2.0122921
226.72288
-206.91099
-214.71891
-24.66631
161.63008
31.635803
253.03021
-212.25347
-65.595046
-4.434529
49.602903
6.999795
225.68073
-194.23439
3.8236771
-21.667153
15.601711
-6.3469727
202.82408
-53.705367
2.712454
-15.264968
75.716393
-9.4564634
-111.11815
236.14073
-281.83186
-158.30306
97.282153
217.83036
-16.182593
-224.52356
67.221263
-51.211048
208.42381
16.272224
-192.10007
-0.22069795
24.525266
-18.669715
-0.19242094
186.65747
-381.45643
-57.500781
-642.43288
-49.302697
656.67876
474.01416
324.45247
-3.4094817
-309.53503
-35.330698
261.79029
-237.96734
-4.3168316
-260.39605
106.96707
-72.082369
242.59018
-12.76149
-216.61614
2.6853332
25.568408
-16.252228
-3.6103116
208.22585
-270.55397
202.63541
128.0944
-152.1262
-121.38755
213.33782
-221.38527
60.021529
24.643001
-45.928299
-21.974416
204.62426
-206.86175
6.9135482
22.129561
-16.888758
-6.009192
200.71734
-89.989318
-4.2255055
29.00033
84.212933
-18.999081
-103.59426
184.44646
-100.26813
-165.36787
110.1491
74.634749
-22.025383
-157.17831
109.58991
-89.926897
138.30236
21.238699
-160.97756
3.118477
47.163642
-34.875665
-3.573817
149.14532
192.78079
123.53271
-889.47582
86.013344
-368.85825
856.0073
486.42927
-24.341936
-92.093085
-57.206532
57.863438
-370.65072
-10.157486
-174.73927
178.72707
-124.59403
150.24656
-19.482127
-177.80617
5.3143029
55.94104
-42.699608
-5.4410763
164.69227
-84.784684
157.35447
149.33671
-150.6528
-122.58216
51.328611
-153.96059
96.059984
37.071954
-80.59651
-33.06326
134.48913
-174.13411
7.5669851
44.491695
-34.471577
-5.6122749
162.16028
-65.60307
-14.125899
50.328971
56.936728
-27.538497
-200.77738
118.76702
12.45594
-161.79502
261.94364
-30.593617
-18.861912
-90.470878
102.23499
-86.581618
77.393026
16.287275
-114.56675
6.9574727
47.377853
-34.998981
-7.4445366
102.67697
-24.13631
1159.736
527.39501
1108.0507
-35.152787
-2735.8926
446.25068
-26.892128
-17.314755
-70.118389
-2.4209968
-329.504
-3.7063499
-91.565258
154.89401
-111.88324
77.213475
-24.951709
-127.5666
7.8015441
55.500579
-42.995368
-7.7726174
115.03362
-4.8056455
-12.610653
193.42357
-47.971557
-134.41788
6.3822501
-88.172512
72.032178
38.571474
-65.887386
-33.401444
76.858298
-127.60339
6.5490593
43.049069
-33.329254
-4.1340114
115.46981
-36.135598
-8.188661
32.847238
31.164235
-19.689703
-126.97617
-48.975666
32.785957
-62.976059
226.7634
-20.620516
-12.359168
-46.499764
76.460813
-65.054465
39.611314
7.8424509
-73.039378
8.7175333
36.012223
-26.241555
-9.8359811
64.389791
41.339024
1184.0918
698.24337
1081.0899
-101.16514
-2903.5989
282.11203
-14.021188
29.605863
-54.644695
-26.834212
-216.21742
8.447424
-49.739717
99.289717
-74.059893
44.457807
-28.394548
-84.36095
10.279319
39.732294
-30.986205
-9.8998411
75.236173
-14.548339
-69.420291
125.29154
8.6611604
-65.826041
15.8425
-55.327562
35.272925
30.790072
-35.814303
-25.328037
50.407595
-86.12903
6.6827888
27.605584
-21.215222
-4.2455099
77.302107
-21.978503
-1.8238865
12.35483
20.137073
-8.6915759
-67.019908
-62.768474
3.677597
-17.916057
141.61195
2.4163486
-1.5337255
-26.679313
48.355826
-42.198165
24.449577
-2.393271
-44.793096
9.6373341
23.924646
-17.112168
-11.150714
39.4948
11.595561
1152.9428
866.54112
1009.9177
-94.635044
-2946.362
134.53376
5.5155276
2.7227207
-40.328964
1.0151712
-103.4579
17.623465
-35.638871
53.988511
-42.002312
33.74022
-27.710379
-54.828636
11.752611
23.815366
-18.604197
-11.071819
48.937745
-18.279482
-65.126589
65.225462
23.432769
-22.565999
17.314382
-41.44879
15.242757
18.732475
-16.142013
-14.499513
38.116557
-57.875542
6.7333475
13.473892
-10.157164
-4.2399874
52.066434
-16.329493
-1.6234664
5.0048121
14.989259
-2.0406641
-23.979906
-11.636857
-15.125495
-23.272716
71.147023
2.8689041
6.0039595
-19.154401
36.711763
-30.646478
17.225779
-10.139751
-27.673441
10.139802
16.392872
-11.342105
-12.003472
24.487572
1.5408054
1182.9361
1116.5818
1062.6947
-87.096045
-3276.6571
44.034208
15.835667
-6.4342551
-27.850127
6.7381007
-32.323273
22.873663
-28.844319
23.490229
-20.506566
25.967551
-22.980087
-36.054175
12.659252
12.837244
-10.126739
-11.667533
32.353397
-13.428954
-60.945785
35.830411
25.976491
-0.6289009
13.197456
-29.413979
5.2509093
9.962536
-6.694753
-4.4500461
25.347767
-39.333425
5.5959424
5.46534
-3.6507832
-3.3946658
35.320839
-11.758423
-6.7391355
6.0009355
10.595604
1.9032559
2.4560266
-23.855051
-2.3923861
-15.49327
33.489364
5.7962295
8.5115404
-11.565391
29.448078
-24.666656
9.5564327
-11.282903
-16.918147
10.511915
12.510977
-8.3304848
-12.617365
14.84408
-7.889072
1211.0332
1331.1984
1119.0153
-85.417304
-3567.9405
-13.858298
18.792464
-5.4642969
-16.735143
5.1677584
12.097842
23.334793
-17.778599
8.772445
-10.259846
14.890173
-18.958179
-23.217664
13.026349
6.8837389
-5.2874038
-11.633377
20.230469
-8.4635007
-55.599315
24.109467
24.528728
6.7272016
8.6979305
-17.081861
-0.39937966
5.4322089
-1.2525008
-0.54404359
13.848122
-25.576884
4.3893018
1.1133242
-0.18296249
-2.0132515
22.273627
-7.544929
-9.4763627
9.0191251
6.4977862
1.5045501
16.26402
-10.580441
4.8823895
-15.412947
6.158144
-1.3099797
9.0963106
-4.9491969
22.212431
-19.254154
3.4096948
-10.513475
-9.4917353
10.683112
10.167273
-6.6230441
-12.752879
8.0199268
10.178895
1250.6629
1555.0956
1184.8076
-80.047716
-3920.6971
-54.959696
25.071804
-0.79206668
-6.4200313
0.928278
36.172006
23.148974
-8.1493272
-0.34348958
-3.8042855
6.1512989
-17.002114
-12.529676
12.86392
3.6430218
-2.8241364
-11.481662
10.331152
-2.4096829
-47.613514
16.822104
21.031042
10.361382
1.8091615
-7.8352041
-4.578195
2.1824295
2.9549975
2.083627
5.1948547
-13.623849
4.2093712
-1.5479023
1.876748
-1.8583626
10.948508
-3.2167727
-10.028557
11.240759
2.1260824
-0.12198164
29.751304
-9.164155
3.4105344
-14.506208
-10.23768
0.74782273
10.610011
-1.7807396
16.630376
-15.620442
1.1467722
-10.983712
-4.4517403
12.119216
9.5816392
-6.6803638
-14.194783
3.6316375
14.9904
1292.3818
1817.3882
1249.0481
57.877716
-4431.6862
-94.011362
34.137351
1.1936936
-1.6771008
0.52624133
59.831607
25.60875
-2.0136782
-7.3918548
0.62406091
0.90792111
-17.733418
-4.7887085
14.48189
1.5292169
-1.3563619
-13.040829
3.1790113
2.1133881
-49.683587
12.645149
24.774634
11.388042
-1.2370286
-1.5047917
-9.2750518
0.97823651
7.2307609
3.0819795
-0.50833273
-4.012723
5.5492778
-4.3023538
3.8710025
-2.8817786
1.7804112
0.56945073
-9.3258491
10.127943
-1.3999082
0.026505591
33.965168
17.434872
-5.9909763
-27.197631
-20.658811
2.4485043
11.964752
-0.80491526
17.831471
-15.857215
-0.48626221
-12.645908
-0.61893588
12.413484
8.4550758
-5.3436609
-14.675307
-0.22755602
-6.1752389
1279.7708
1774.6641
1241.1904
13.542869
-4302.9928
-88.965233
34.546939
1.9162496
-3.188372
-0.82788473
56.518592
26.743474
3.0987336
-6.2277532
0.45500183
-4.292412
-19.775694
1.0388067
15.99624
0.27342051
-0.015875402
-14.938154
-2.3510362
4.4851556
-49.78498
12.830661
25.648866
11.768751
-4.9479902
4.0892178
-10.5133
3.2293394
8.7624502
1.0161972
-6.581366
4.8521036
8.1612828
-6.639692
6.0807422
-5.4625549
-6.9888068
4.3101173
-6.8296595
7.0296141
-5.5034344
0.99163304
24.865742
12.46771
6.7672672
-27.08401
-7.1781402
-9.8381496
12.468319
5.0072245
19.856336
-15.711785
-7.2501005
-14.369467
1.8916855
12.325198
6.1580423
-3.2515098
-15.158227
-1.9638716
-62.500016
1223.0455
1502.8928
1166.91
-15.632329
-3814.716
-51.074925
28.686132
4.6630429
-11.732617
-5.8974327
35.355949
27.763205
9.9799435
-2.8263534
0.040447126
-11.999852
-22.956702
4.883713
18.426302
-2.545225
2.7724234
-18.264553
-5.2703273
9.5687924
-56.75526
19.252022
29.029526
9.0992782
-10.193989
12.715325
-11.745337
9.2472716
10.982392
-4.8479634
-16.350239
12.764857
12.626169
-10.9707
10.193529
-9.9328365
-14.677817
10.628846
-1.3882142
1.3298624
-13.024561
2.4474903
2.6957431
-31.624654
20.645524
-1.7814364
30.786148
-20.720497
13.334919
13.488692
11.214697
-5.8955409
-16.043072
-16.099548
-2.6665695
14.282536
-1.798702
1.5200072
-18.863886
7.5248001
-112.96345
1190.1581
1241.6841
1096.555
-26.461984
-3388.9718
-6.7820802
20.418415
12.060097
-22.34435
-14.916139
11.564206
31.205707
20.801241
-4.6576045
6.0436395
-24.083473
-29.308893
3.0922047
24.472661
-11.749145
10.094015
-23.598141
-2.3105314
21.617528
-56.873937
31.885439
30.263708
-0.38704559
-26.505524
27.946444
-19.023802
18.660179
19.944205
-14.100772
-33.424987
18.9476
18.523574
-21.686059
19.665275
-15.784678
-19.664419
22.762435
12.030183
-11.034072
-26.435162
2.6739307
-26.733115
-64.265363
45.130473
23.64633
75.573498
-53.349405
16.275876
27.735625
-21.404275
28.683874
-33.049965
-18.24018
-19.819797
1.2873527
-25.814693
22.994607
-4.4953395
25.846456
-51.915583
1179.0672
1087.5235
1050.3359
-8.6637215
-3256.3471
47.848306
23.731733
24.30143
-43.337021
-29.323276
-23.220856
36.827673
37.674002
-21.770866
28.329288
-41.772828
-39.286337
-9.8288514
17.49513
-32.357077
28.548918
-21.441716
17.584646
50.996673
-78.781432
56.394513
51.285857
-18.48586
-61.409027
49.508636
-40.338333
29.082302
42.517247
-24.823142
-55.945081
15.346602
26.796118
-43.169808
37.68237
-25.495049
-11.158785
36.514958
35.518762
-33.680864
-39.067563
0.71646311
-59.407108
-73.44703
105.0837
41.255368
123.06986
-136.55334
3.5979129
46.363035
-72.268375
82.065992
-52.759197
-6.9988379
-64.881909
-24.602915
-92.712898
83.917877
23.258934
75.021448
-73.410639
1168.3471
835.16627
1045.6061
-7.4620579
-2968.2466
147.81551
27.575778
53.11445
-72.482463
-69.429317
-86.593438
35.655983
55.741915
-54.223237
68.735585
-62.622558
-43.28697
-50.828269
15.7426
-90.532574
89.459574
-28.886644
65.046436
103.01748
-109.54645
99.597547
76.490736
-49.654738
-119.90341
77.913239
-76.760386
46.677885
83.637784
-42.762721
-88.704055
-8.922159
54.645715
-91.891709
87.910684
-57.355953
15.616595
46.921643
67.142861
-58.272729
-50.765687
-5.027387
-41.880054
-77.567225
249.20913
74.4095
110.03494
-314.20601
-21.027616
87.633528
-184.84908
210.57319
-107.97225
15.642807
-125.72667
-64.364266
-201.93295
179.49987
56.65992
155.86188
-71.500586
1182.0528
605.75787
1167.0386
34.443298
-2917.7917
306.77945
7.8494655
158.9772
-104.13209
-217.91762
-151.55322
45.246343
99.185574
-141.67803
171.29868
-119.25953
-54.789499
-144.22907
22.888461
-209.59155
194.83411
-59.307448
195.40712
187.94696
-86.916425
114.46347
81.028671
-60.996813
-235.52465
138.89307
-148.1633
83.763015
174.82256
-78.379357
-170.9346
-42.838551
114.20187
-204.4832
194.94572
-117.50405
55.677898
68.533854
98.119874
-80.86551
-78.567265
-7.2259802
16.360935
-77.740591
563.14188
123.05518
24.174564
-648.98888
-64.349534
-419.85945
243.7042
507.63324
-301.21669
34.09318
-345.83647
-376.86157
-407.60111
317.37358
330.92274
482.00631
161.38271
-373.72931
-1310.4755
-100.13324
-75.449282
1698.4058
609.63814
-35.973207
543.73509
-52.799658
-852.80449
-211.77847
60.010532
-437.93939
239.51824
571.01605
-121.15623
-311.43902
57.240596
-553.92069
-593.39573
440.92339
-205.65088
854.80628
516.93125
-22.7569
118.79281
78.469373
-5.341834
-686.09133
-318.15367
349.01948
120.37785
392.33166
-126.13185
-417.43626
311.41798
-420.68874
-119.59975
353.96703
-275.09424
149.99628
78.650678
144.49632
-152.17469
-186.19002
115.21911
-24.660844
-341.49397
1168.8863
439.34935
5.2424293
-1247.3231
-15.484099
-125.47471
221.43018
156.01538
-264.63463
28.145705
-732.36295
-1687.0846
-1336.1515
1478.1481
1738.9496
538.49931
785.9422
-454.17287
-2595.3331
1112.8506
158.2056
992.50793
-84.086284
1.1936498
246.27643
-3.4781247
-214.61432
54.708318
72.292169
-752.70789
836.38699
1100.6888
-122.5635
-1134.1032
55.189648
-475.30751
-642.75407
781.27496
-222.72892
504.32537
1126.9618
118.3052
-447.10036
435.02672
-68.978021
-1164.2091
-103.48897
198.51024
43.762362
119.36419
-45.635961
-212.517
801.60696
-876.9429
-99.374125
1035.0079
-803.13177
-57.16752
-53.638562
-98.231172
286.02967
10.330733
-30.526262
3.4551706
-230.38675
-145.11111
-128.30373
386.3793
1544.6701
-125.02512
-275.80196
225.28246
-1469.2001
35.518341
11.162904
7.3456649
46.048865
776.57168
223.60944
110.42626
-22.536076
-1088.0716
2727.7376
1244.0213
199.87732
985.55188
-3631.6978
-1525.4905
690.65377
2434.7982
-1831.1662
-1294.2859
850.77452
32.967506
-156.11984
-144.75766
22.623924
21.493945
11.163613
-14.815637
-6.571899
-13.950281
-9.1788593
-150.44986
-149.29574
-141.58695
-152.29614
1125.0026
-203.5683
705.8427
-1526.1367
439.18671
-540.32945
-2051.7245
-5882.6042
3089.1309
2694.8377
2150.3598
776.69854
284.72327
-482.72112
-191.09026
-621.19047
73.738211
65.835885
46.138169
47.860223
252.40778
-82.94105
-102.50131
200.85931
-0.0064614108
-267.81986
-874.28691
191.0389
2000.2021
-116.64594
53.325433
-1253.6346
828.49591
-205.74019
-269.44462
519.2145
-668.69917
-54.601615
-68.926996
-50.7289
-29.572062
94.952217
1007.4976
-1286.7875
285.94284
-101.60514
-733.40784
814.07444
1000.1674
-658.41084
-1176.1407
753.71886
208.13583
134.4439
-1045.1334
-724.53717
194.23669
147.99998
202.66547
224.58457
186.74467
212.85855
186.31238
31.54312
33.655023
20.843633
-14.360129
-149.44562
-235.08017
397.7506
-626.36943
482.37864
130.76952
-585.05375
-452.10134
296.73143
285.00877
455.41461
1016.7809
-1013.9305
1661.6175
-920.89983
-825.14941
36.137495
22.867794
4.8857393
17.687572
18.310882
-29.684883
-266.1793
222.66308
63.556433
-8.6677096
-154.85339
-835.37784
544.34214
-499.01654
710.41115
234.48542
-563.5299
-113.60986
605.43542
1041.3843
-625.19531
-105.23598
-101.07716
-70.400328
-67.776111
47.9847
1259.3637
-1431.995
-44.81341
169.45971
-574.72032
226.86383
402.04737
-260.88491
-288.41256
495.10372
262.72493
298.79069
-654.74925
-856.03434
283.24772
245.68933
269.4019
151.71801
142.74168
111.52397
128.66951
-83.065664
-102.26365
-102.50961
-95.890764
66.358024
-45.425338
-478.59713
358.5271
219.54766
-120.42146
-137.02551
-107.58231
29.516482
84.48446
130.60559
159.94047
-1624.3137
1813.0044
352.5219
-884.01689
182.86285
-3.8606451
-83.577484
-348.65515
392.11627
-3.4113096
47.386777
-208.31192
-381.79379
293.28142
340.59104
201.6304
-65.347019
-56.397092
-68.209875
-55.451306
-555.78232
-240.01944
530.23524
932.57638
-453.48578
-77.552007
-64.55346
-33.174303
-38.248287
-25.659279
1259.0413
-1402.764
36.90426
132.47736
-336.01122
196.9659
190.74351
-81.609052
-273.15874
303.06549
-80.047073
1195.0399
82.314819
915.75237
-233.52399
-123.29596
-245.43421
-227.17091
-229.10679
-161.37568
-134.06648
-224.23257
-154.27914
-182.21734
-198.36796
174.83708
59.569902
-1231.4622
1026.4297
122.63896
-152.02534
-66.990769
48.002536
-55.164474
10.540192
63.611091
-276.39543
1041.1501
1379.6392
-815.4674
-1421.7067
92.770643
-4.7626712
-19.344311
-379.15342
431.61165
3.2948795
-31.647435
-238.9684
-330.43454
214.13077
243.78124
262.26829
-40.131349
-34.30439
-43.654025
-32.699603
-792.47487
-345.45582
371.96509
1231.005
-334.52021
-65.224766
-41.764973
-4.2183421
-19.316652
-72.878393
1256.3525
-1376.5261
88.757058
104.29467
-271.98387
229.10254
104.76859
-11.963121
-325.13718
275.20628
-173.64796
237.35115
233.84738
1504.9849
-326.25709
-185.86143
-312.50322
-233.9957
-230.34317
-142.402
-143.1765
-85.104386
-32.219712
-56.245695
-54.439313
16.580851
60.003404
-1630.0131
1408.0123
114.91753
30.486933
-70.440199
137.30881
-108.62709
-33.076767
74.832099
96.429666
1407.2332
283.36477
-987.66762
-603.64016
-195.72587
-2.8556132
-135.93491
-358.0583
456.1954
6.660403
33.991995
-350.21315
-349.50861
168.52921
252.092
388.12394
-29.438855
-23.864862
-33.26824
-22.459637
-1306.7183
-493.18766
483.36838
1850.8836
-520.45451
-43.321601
-17.177202
31.553402
15.046777
-104.80317
1246.1221
-1365.0027
123.49139
100.192
-343.16835
244.97022
45.734095
35.535802
-356.95434
373.87629
-165.05768
-171.32365
-58.889969
1497.9574
-305.08849
-165.14215
-283.50187
-207.79115
-203.95214
-109.24532
-118.75466
65.53911
84.121779
65.932318
75.183714
-206.0805
16.053884
-1870.5284
1674.6293
133.38675
252.52874
-125.8733
193.56292
-148.14687
-55.096292
135.54975
534.26451
1045.288
889.02438
-624.7057
-1177.9767
-665.90059
-21.424245
-161.35981
-344.60817
431.69537
21.888021
73.808135
-545.0618
-370.66324
130.42825
244.75175
616.37449
-20.582009
-15.330906
-26.579575
-13.345829
-1403.9937
-590.6132
857.18589
1960.9326
-1007.0302
23.344538
29.998116
63.881087
66.290923
-151.56616
1173.1837
-1337.6083
167.21382
148.77667
-497.08143
138.4405
-29.968492
90.718529
-236.18356
534.06966
172.2451
-661.28804
-1146.6825
-109.33012
185.97125
201.62196
199.26681
168.61473
172.68156
184.7571
164.74723
111.07034
122.8562
140.37667
93.086271
-306.06845
-70.580367
-1665.4344
1567.2335
170.92
303.92299
-243.43374
217.15138
-182.05862
-58.429956
266.7671
1034.8248
-1305.2717
2106.4656
254.70819
-1320.5868
-770.14193
-35.94465
-237.80389
-295.29714
377.29003
31.172136
160.58295
-834.20224
-409.43777
84.560152
291.53367
895.2624
-7.2269178
-2.9848235
-17.915664
0.4062398
-1551.9668
-1084.251
1807.8176
2153.1954
-2181.0527
209.65356
210.93095
212.05525
223.61593
-218.58539
1012.1784
-1277.5437
217.65615
266.29433
-355.63954
-482.34984
-92.362902
161.5772
534.45923
234.31327
218.29877
328.89313
-2006.9831
-303.67885
297.23955
197.54318
276.39778
359.47571
365.4063
326.54137
337.21202
-109.23182
-110.60913
-69.916964
-106.5915
-459.90557
-286.86202
-1733.3152
1552.3658
294.1138
633.59904
-233.51005
43.237379
-98.019351
39.25081
249.0392
365.08729
-2295.5602
3040.9099
1145.8961
-1954.3008
-302.03318
-68.559859
-329.09957
-230.53283
267.18813
62.576607
298.42668
-947.20605
-353.70971
20.656561
311.90659
948.60799
7.7554153
6.6076477
-5.705032
11.083146
-2705.7058
-3051.5909
3850.4028
3089.3044
-4227.8682
755.11388
744.48004
761.39482
784.46932
-242.62653
-1218.6386
24.107877
108.77019
1328.3869
-611.43739
-1510.4081
-319.33101
98.689525
1115.9595
1226.5272
-2427.2778
-786.2385
1384.7229
2893.2021
-670.31283
-1020.0996
-869.87864
561.14036
568.8172
444.52212
487.40392
-293.74961
-189.10703
1.923549
-85.071305
-1943.1087
-517.52229
-2105.1029
2597.7543
1744.5446
223.43029
-588.6173
9.4642459
-88.690763
30.64703
637.19595
213.52617
-2070.2282
2617.2019
1886.9318
-2458.8806
-188.55232
-195.10223
-493.77275
-135.71954
244.67339
194.03506
385.88531
-900.29714
146.04049
85.766373
-265.23089
926.23676
6.3926396
3.3721286
-4.8666743
2.5824396
-2637.8015
2612.118
-10310.77
4678.2352
8349.0872
-803.94371
-618.02631
-493.43174
-775.46842
-1580.0294
2122.5562
-2204.1425
-1709.4768
2300.5412
1070.5515
-4929.1981
785.05621
4370.01
-4356.635
1094.9285
1003.8505
1315.8715
-661.5507
-507.88283
-584.05632
-659.69819
817.42588
607.19418
806.76953
897.91591
-4258.2276
1517.1246
-4242.1106
-4476.3989
4972.2462
1739.5445
1421.454
1619.2535
1707.1137
621.61157
912.19134
-2811.9869
-143.99765
-1142.3478
2564.5285
63.437158
-608.866
545.38602
-544.64551
481.75265
62.935249
-4328.8175
7812.6472
1490.4636
-5880.7802
3067.068
-481.24207
-1310.7923
-777.68456
409.13737
613.05791
-357.28247
-79.234408
98.945455
368.60664
-644.09405
-285.21885
-1282.6979
1408.3143
249.94889
261.76525
260.57266
234.87456
-287.57146
-289.1643
-300.90688
-282.35731
98.544374
66.129246
80.471013
67.293395
-397.436
627.61826
65.142633
-407.03648
182.47391
-70.76291
-202.35947
408.82066
-357.38818
271.06563
-141.5005
21.36089
1092.2738
-244.26898
198.28657
-1381.779
72.711777
87.147854
77.238372
73.729655
105.64839
228.75969
4.2894138
-28.087002
-105.28798
-205.3238
108.02395
-1674.1649
-217.91548
1734.3468
-84.839509
50.608453
20.915018
45.075164
17.953095
209.81444
-32.919116
127.76929
-214.50149
-35.212931
736.85623
1250.0902
-389.25064
-1205.7251
-356.75908
179.02139
-1645.5895
968.85122
1525.0986
7.665955
-1035.0504
1046.0343
56.767376
-338.61498
-24.443159
-1081.234
-393.83
231.60855
-29.743643
538.5582
439.34929
-7.8528631
261.32917
86.077689
-1.0493274
-122.73717
-215.76781
160.25999
-1294.9902
-105.03975
1244.0817
-207.32603
203.01472
-1776.5462
5012.8116
303.0772
-2357.2858
-63.275364
-1118.7814
-31.719653
-65.863233
-149.45128
129.80401
-8.9517432
126.1819
-585.9538
-607.82708
-52.053305
762.3897
538.63371
-1815.8584
-1001.3278
1923.8869
1962.1555
1658.8805
5905.9078
5390.1023
5794.9088
-6015.2497
618.04882
-11693.718
252.51697
-120.57126
-2.0424628
-221.84291
-509.99521
-1975.0576
2770.9914
1781.7828
-2067.7196
1035.1871
373.1284
15.60509
-424.96409
-1014.5087
-6.9746436
21.871187
5.0750929
-4.4156991
-421.68623
73.521481
-737.72776
-28.586344
-113.881
113.55991
47.657908
-50.469643
739.74188
-394.38576
-127.99244
699.77087
-1152.0486
59.44701
58.308579
62.195831
54.961196
-311.66966
-1294.0724
1262.4622
249.71805
270.89097
164.11273
252.55265
207.6107
3083.8469
-1767.4206
2537.7567
-2062.1793
-2272.0429
-1373.3801
832.96794
2517.847
503.52429
457.0962
365.1078
1031.0586
209.30808
27.974153
-89.018942
-31.840006
-219.91551
552.59229
-456.0118
162.04735
-674.87796
416.24935
72.067685
218.2591
19.033443
-7.2711759
-67.232961
-234.85856
200.82287
-642.01363
946.28118
-114.59726
104.53489
83.600536
90.251601
107.81703
70.808488
79.262687
-246.64634
254.66774
-31.038253
-127.0561
-65.562671
61.191878
-10.243419
27.732146
-13.118814
-536.95134
-10.399741
254.54913
292.80183
221.8661
608.50087
-809.73179
-512.93703
-384.64248
199.91888
-10.842265
-266.82365
96.175969
210.30841
260.9911
-453.26142
-299.79488
281.75114
22.953079
254.42176
134.38434
-88.544118
359.315
-1399.7332
1014.9076
1036.5185
-701.66998
-309.33907
52.20943
434.7429
-1023.9039
-317.23625
373.13523
170.80595
-534.80709
308.09968
-1603.0837
1408.9555
-1979.1133
-1022.9798
1616.192
653.06887
-4768.1332
-5542.2836
-1596.1277
5338.1177
426.89235
720.13438
510.10314
183.96281
-3605.0665
509.6009
149.36074
-160.3601
2922.5014
-393.44453
350.15895
-410.34177
-211.19122
747.61352
-82.795232
3628.7532
-138.45804
-900.56933
601.0245
-1614.7918
-1575.9587
-95.181472
-213.06677
-209.88453
127.7498
247.86962
142.51317
702.56213
-617.97168
30.145661
-491.461
440.16161
440.14262
-1968.4107
-530.67792
-624.3141
-521.88698
2033.452
-74.878688
1859.6295
-1486.7433
-138.28188
-1249.784
1775.5431
-26.314854
272.28611
278.02898
285.13057
290.13316
1730.6384
242.13981
-1494.9944
225.04488
222.95739
263.19082
-288.84639
-171.81085
-257.44828
-225.36906
-274.7318
-149.62806
-213.17407
-221.32246
613.35177
57.950825
425.58826
-125.50993
1.4267307
-385.3544
25.898373
223.49374
-152.44117
-226.33627
264.1071
-180.28934
71.465585
8788.377
4300.1007
-2820.6924
-3414.4519
-2809.7745
-2429.4895
-2853.4417
-3089.447
91.071647
-1598.5622
1333.1933
-772.19102
946.48809
-810.87401
-2521.8581
4215.6372
-458.07942
-424.83308
564.64432
-81.770444
83.510403
126.80343
-676.82786
400.55956
372.99138
21.399354
24.107319
-313.25555
-505.79744
-186.40108
-21.970172
127.60633
308.17696
864.86406
659.1344
110.36107
-249.61209
-241.28605
-261.74558
-159.61987
-505.26064
876.79065
248.62465
-6.7631744
449.99632
-355.6463
-166.74507
430.80109
191.52116
-151.34933
-515.18725
210.95944
187.00522
-228.64702
-204.97137
-216.36283
-122.07041
797.26098
656.73493
1096.5363
516.20422
-336.61343
-1090.6242
-220.70733
594.23524
-5.6581037
-39.233401
93.098201
-720.18155
-32.030184
-416.76146
-1362.526
-68.557661
2041.2583
50.674971
449.64076
-304.81934
-112.98856
453.69736
-536.19763
47.573011
263.84458
-257.1666
1.501195
990.28443
-183.05892
474.64477
2343.5864
1012.0381
725.78173
216.13951
241.08604
-5224.0478
-6.7749295
235.87639
-244.77184
-282.52559
-267.16934
-147.85532
1347.0412
2.4299335
26.110258
15.163258
-114.36543
-146.38028
-61.228626
-94.217563
-602.16224
-598.05568
-119.10137
396.44235
980.11881
-870.60565
-1203.1332
1025.6956
980.63885
-664.95756
-303.68077
-2629.591
586.13774
786.3385
797.8441
-641.85813
2857.4765
-2038.6204
433.33929
673.774
-61.117868
-385.67745
3.424393
1071.3616
371.14212
51.046509
-1496.9736
457.88852
-160.97391
-0.12479371
204.02714
77.304841
-578.11701
312.48879
915.07125
-2140.2549
477.22644
722.58433
606.71334
-1531.0605
67.095406
-81.626415
-0.51096323
260.78504
231.8202
590.49215
357.91966
-1690.2252
-115.20196
101.30226
147.76409
-74.18589
975.51198
-337.1553
75.061195
-162.1116
517.74828
-93.541023
-204.88982
-416.68436
348.2364
319.45211
265.30565
-2401.2813
548.4943
419.67634
443.19288
2837.6204
-913.72857
-1712.9631
922.73987
-971.99823
-1126.0755
946.25724
1097.381
-868.30363
-1019.0903
-661.26
896.92771
804.79016
-333.03858
424.05753
45.149073
-227.30701
-62.682139
-497.36636
252.02728
-174.87979
10.709062
-339.83077
251.9842
243.97744
388.82164
72.49947
-51.445986
-171.9123
-481.93891
-185.62019
149.21919
311.59598
-123.6792
975.44894
527.01262
113.70759
-425.59507
833.59167
-218.03616
-223.4231
-230.5876
-48.751479
-45.619963
-37.90293
-35.086745
-273.8515
126.06156
451.50845
248.86495
412.60534
237.41053