/*--------------------------------*- C++ -*----------------------------------*\
  =========                 |
  \\      /  F ield         | OpenFOAM: The Open Source CFD Toolbox
   \\    /   O peration     | Website:  https://openfoam.org
    \\  /    A nd           | Version:  12
     \\/     M anipulation  |
\*---------------------------------------------------------------------------*/
FoamFile
{
    format      ascii;
    class       volVectorField;
    location    "4";
    object      U;
}
// * * * * * * * * * * * * * * * * * * * * * * * * * * * * * * * * * * * * * //

dimensions      [0 1 -1 0 0 0 0];

internalField   nonuniform List<vector> 
94133
(
(32.524237 -22.119127 -5.3457787)
(-35.2594 -17.519514 -1.2094793)
(-65.744939 -4.0098066 -2.2118258)
(-114.50594 -3.2232397 5.4452269)
(-101.63552 2.1500101 19.931952)
(4.8901803 26.585952 -4.8457226)
(-66.807639 25.37383 -3.4490152)
(32.480738 -27.775321 -15.088382)
(16.244806 -12.682076 -0.35671485)
(32.330705 -2.953167 -24.458206)
(-12.765033 -0.38772511 -1.806694)
(-52.609542 1.277747 27.769782)
(33.240541 18.325516 -16.054453)
(22.430799 11.215743 -1.7490509)
(82.579592 -19.764452 -40.233034)
(89.067377 -8.1615486 1.2882814)
(90.965378 -1.6042519 -61.359277)
(97.059976 -0.73546847 -4.3797686)
(48.379003 0.25764 61.594452)
(89.201832 17.183817 -39.494294)
(91.611129 7.0825571 0.24699658)
(55.740404 -14.056128 44.154502)
(154.17509 -38.124614 -92.110503)
(162.13242 -10.999794 8.8936095)
(106.81337 19.31373 108.3983)
(162.52249 -1.9735597 -130.99684)
(171.99768 0.22419506 -2.2856352)
(118.63937 0.095708944 119.69568)
(155.80368 36.331805 -94.633172)
(162.28481 10.561722 7.6897662)
(95.637413 -16.005886 108.89752)
(284.13118 -76.814644 -193.28236)
(272.9359 -25.602036 29.997505)
(200.68348 30.226687 223.62266)
(72.113768 17.82497 -361.19137)
(316.78247 -2.7443706 -264.74112)
(298.24822 -0.22824925 -0.55011693)
(196.12989 0.24541667 211.33116)
(290.67348 74.864733 -200.25569)
(276.88375 23.800979 22.501733)
(182.53554 -28.493537 211.29357)
(559.0192 -186.09238 -342.87428)
(478.94063 -60.368652 91.591217)
(274.84968 45.502895 400.47888)
(423.14149 2.7577849 -905.26431)
(670.5353 -4.0830696 -509.99856)
(535.82435 4.197819 28.318738)
(306.45956 -1.0138654 394.13175)
(568.91331 194.62024 -357.30323)
(484.09886 55.072489 80.965643)
(276.32021 -48.479462 397.63132)
(1146.9486 -449.21614 -477.5263)
(813.14538 -129.98331 298.69331)
(382.03312 65.321754 736.93241)
(1646.8503 21.848862 -1999.8535)
(1524.8686 -12.28807 -832.97748)
(955.33581 0.42131193 176.32712)
(444.55619 -3.7333931 724.46586)
(1160.9079 471.14081 -514.3027)
(819.64744 127.3057 279.31877)
(412.50074 -32.694547 714.91874)
(2155.8324 -921.80037 -202.88798)
(1158.1639 -217.08328 842.41898)
(498.02236 45.387601 1238.5087)
(5719.5519 9.6404452 -5045.4353)
(3363.5314 -20.15839 -698.17553)
(1468.2916 -17.433424 676.66359)
(546.6766 -11.635204 1247.9456)
(2238.7853 886.41878 -295.54871)
(1180.5087 210.70088 802.61966)
(499.52513 -27.279708 1234.8364)
(2795.6132 -1127.455 1325.0563)
(1108.7966 -226.2635 1823.1865)
(406.21589 3.0494993 1897.4108)
(7241.6568 126.00315 -9408.2991)
(4551.7769 -67.266713 1582.7797)
(1468.5907 -26.654066 1750.5517)
(461.99556 -21.01782 1903.6049)
(3054.0023 1061.7708 1166.8416)
(1181.701 192.2544 1751.7957)
(433.10423 -27.806132 1861.2913)
(667.30748 -103.00353 1616.4331)
(997.95395 -287.73151 3350.4655)
(289.35888 -76.514457 2691.1752)
(94.644197 -7.8177801 2428.811)
(1359.1407 -464.9668 9107.0858)
(705.80629 -186.90871 3774.3516)
(370.58073 -95.934877 2734.9133)
(132.35009 -40.883012 2429.4065)
(1297.1693 131.01707 3267.8353)
(415.87606 -4.333143 2631.3886)
(147.39653 -49.70043 2381.6458)
(206.34733 -30.880721 2469.7714)
(-1620.3341 245.40593 2451.5143)
(-695.6357 -28.718579 2408.2657)
(-246.05662 -65.78587 2370.6143)
(-16853.381 -801.98657 2510.6887)
(-3794.1221 -211.46379 2325.1209)
(-839.80208 -158.28597 2370.1258)
(-247.60007 -75.869858 2371.3155)
(-1281.2907 -645.78247 2291.4972)
(-511.69809 -174.54736 2408.1184)
(-184.85839 -60.318884 2394.6639)
(-477.82666 -221.57099 2307.7726)
(-1215.7275 -611.64363 705.06682)
(-979.48231 -145.06716 1670.29)
(-392.36847 -146.43441 1942.9173)
(27.754197 -988.26513 -687.69884)
(-2778.1688 -386.67667 551.03882)
(-1075.4065 -229.75963 1586.3851)
(-395.82261 -112.54033 1971.0968)
(196.86214 220.44923 502.05457)
(-710.60113 -175.96297 1705.6479)
(-309.8296 -29.634589 2027.5519)
(-685.72451 -159.88782 1596.4323)
(372.36264 -1754.8768 497.54631)
(-808.40745 -333.07158 1115.4444)
(-366.64092 -212.4487 1454.1629)
(3857.0705 -975.73654 -205.13257)
(-1089.8379 -447.2316 411.58443)
(-708.99684 -291.78154 1096.3367)
(-331.20096 -146.86421 1512.2944)
(1512.015 612.15125 550.07735)
(-461.45136 -60.038716 1240.6288)
(-255.39285 -13.433019 1583.1199)
(-613.6795 -52.986663 1167.9663)
(789.70922 -2023.4478 390.20807)
(-563.02746 -467.25587 741.44077)
(-284.72111 -254.80499 1025.7888)
(5759.0351 -1150.9769 -128.2086)
(78.993018 -471.70612 436.88169)
(-338.75446 -330.81877 815.68666)
(-205.62693 -174.74599 1108.3104)
(1627.3047 672.44194 443.28895)
(-182.7587 90.61543 934.5322)
(-149.46552 -6.3128592 1190.3556)
(-543.65225 33.179266 884.73656)
(941.65985 -1996.2087 256.56231)
(-376.95719 -524.08757 479.28844)
(-207.74664 -273.82796 685.49808)
(7694.4802 -1169.1983 -103.32036)
(669.94371 -473.91073 339.52316)
(-42.18832 -346.91302 595.89025)
(-92.614555 -195.99794 780.51239)
(1668.8438 646.5313 288.88124)
(83.658343 187.07748 614.95012)
(-53.836767 -3.6957796 870.96611)
(-460.46573 114.52195 605.11753)
(1099.0321 -1834.7474 123.56187)
(-242.83747 -514.45231 275.27091)
(-144.19813 -273.39435 424.46145)
(9473.6665 -1087.1801 -55.129162)
(1104.8958 -481.65204 242.82284)
(134.47632 -313.0718 362.45764)
(-3.9004148 -204.89128 505.63269)
(1735.1887 584.10879 167.64358)
(244.66183 169.30529 350.04453)
(30.470126 -5.3626382 569.48593)
(-345.02588 166.76915 344.53305)
(1074.886 -1736.1311 35.140649)
(-143.79517 -463.28156 131.51605)
(-96.983243 -260.2895 226.81513)
(11006.873 -1000.671 -68.192217)
(1287.4673 -482.10929 141.21466)
(229.11741 -285.99465 194.58092)
(54.36654 -202.87603 273.91645)
(1803.1157 522.86839 67.777326)
(345.16475 131.23284 169.81605)
(91.053662 -20.29693 301.3606)
(-231.75049 190.11621 131.49977)
(1063.1186 -1460.5446 -25.166176)
(-88.819976 -440.08135 43.821209)
(-86.803146 -269.30495 69.62982)
(12824.833 -924.75689 -37.166442)
(1533.991 -510.50739 30.624318)
(296.00374 -283.20264 55.375283)
(82.882058 -214.91849 81.692679)
(1863.9751 455.42765 -8.7235169)
(413.94786 94.045715 42.247378)
(121.13422 -39.008903 86.419961)
(-105.04578 199.17935 -1.3336186)
(1095.4572 -1586.8397 -28.933428)
(-95.391626 -447.3346 -60.152423)
(-79.786026 -270.24131 -84.327288)
(12314.744 -877.56755 20.039633)
(1476.2564 -491.01511 -83.57004)
(276.08584 -285.71214 -105.20665)
(90.092888 -220.39508 -111.89543)
(1861.1845 481.25316 -48.22446)
(395.02633 85.875777 -96.692676)
(129.26011 -47.683914 -139.15848)
(-97.613094 176.61547 -74.833952)
(1047.7398 -1612.1348 -135.34111)
(-134.69737 -490.32948 -178.7416)
(-83.280937 -286.50321 -229.99874)
(10507.067 -923.3188 20.534724)
(1271.2251 -479.94222 -201.56917)
(241.87479 -302.85352 -249.82901)
(94.707959 -230.53206 -276.5212)
(1743.307 538.45062 -146.22518)
(341.93721 96.160546 -243.28166)
(130.82232 -52.000047 -322.91969)
(-156.42382 157.85698 -247.8091)
(1029.3645 -1741.4131 -286.28456)
(-133.06702 -560.37006 -356.08867)
(-76.859281 -359.78051 -375.91656)
(9246.3989 -1048.0124 -157.22662)
(1113.2895 -496.33151 -371.73008)
(259.02034 -344.02903 -438.29574)
(131.41042 -266.9303 -413.44225)
(1649.5947 596.08929 -312.60541)
(309.92095 75.269096 -459.77234)
(159.91325 -81.384146 -502.32354)
(-138.50381 114.69258 -521.94413)
(951.33822 -1628.4608 -500.33038)
(-23.009687 -602.9729 -642.03271)
(54.60815 -272.63065 -401.65084)
(7430.1924 -1191.6606 214.89636)
(709.32081 -531.50106 -485.51733)
(302.20491 -419.70817 -710.32664)
(231.07093 -262.31003 -430.48646)
(1555.2681 567.57347 -527.55126)
(346.04641 -14.970081 -776.84776)
(279.33952 -172.95768 -626.8487)
(-5.2893204 63.113432 -823.15463)
(674.79532 -1132.6742 -1130.3711)
(253.73799 -348.49329 -1066.5461)
(434.08843 -30.410146 -301.6668)
(5214.154 -1021.6344 47.377432)
(-163.58871 -600.55468 -843.86598)
(352.15061 -418.87323 -1099.7921)
(550.59905 -263.46329 -256.36996)
(1339.3137 365.66554 -1039.5294)
(562.68721 -214.423 -1336.5558)
(584.04653 -365.85166 -602.66516)
(198.0887 10.124376 -1268.8905)
(179.61761 -311.21724 -2742.1345)
(1083.446 -20.369782 -1823.9129)
(1122.5839 348.51953 256.17342)
(1251.3978 -919.17564 808.33851)
(-2069.2619 -520.54617 -1846.7403)
(874.72574 -361.16101 -1837.8139)
(1236.2652 -292.52683 496.24481)
(655.08392 -148.75983 -2621.3257)
(1129.992 -447.81447 -2067.1557)
(1204.2453 -710.69179 -332.78464)
(610.75938 -12.052609 -2130.0061)
(1765.2029 -117.37307 -5242.481)
(2775.4661 302.04 -2856.444)
(3010.2243 1395.8989 1677.5745)
(-19551.196 -1037.2647 -5082.7352)
(-1189.8197 38.427993 -5270.9929)
(2739.5862 -377.40239 -2944.4058)
(3538.2689 -521.02768 3159.622)
(1688.5522 -451.4458 -5352.7426)
(2478.2183 -663.87623 -3229.9498)
(2630.3807 -1715.2671 171.65509)
(1468.1966 136.09308 -3414.7186)
(2955.983 -313.23279 -5773.2917)
(2450.9227 -134.47982 -4657.495)
(10454.122 5707.8753 -55.602669)
(-16385.051 -10466.099 24712.585)
(2746.1322 94.721557 -4014.5918)
(3466.3874 -17.900297 -5802.3629)
(15228.607 -2782.5163 371.66973)
(4037.7406 977.39362 -5255.8043)
(2292.9601 -283.94557 -3938.5746)
(6178.347 -3927.283 -1476.7627)
(1509.5543 1076.1536 -6370.4161)
(2489.337 396.94701 -5237.3372)
(-19280.317 -22179.645 -45652.932)
(-4106.2988 -19396.682 -4726.6811)
(-51680.026 -37669.277 5011.6584)
(-221.24958 1118.1401 -3174.13)
(-6538.4045 2632.3128 -2420.1161)
(-113362.37 75156.199 139025.21)
(5026.0436 -686.25807 -2385.8947)
(-3492.3816 1961.1313 -13183.11)
(-2595.9765 6625.3505 -3314.3488)
(1181.0532 1754.57 -2762.2355)
(-88573.407 24177.032 -5358.3748)
(-4980.3827 -5575.3921 6144.599)
(-2110.3554 5868.7818 682.02605)
(-1051.2217 2040.5717 1587.2789)
(-3626.9993 4625.1304 6734.1333)
(4376.2799 -4895.8289 -1243.4262)
(-1542.5103 974.35228 -1215.3472)
(-3866.857 3354.8968 2397.4942)
(-1203.5854 2866.0508 -2350.415)
(-103920.29 8575.3403 -3426.1959)
(-2100.8366 -2191.8764 4196.1581)
(-4711.7444 4940.2476 -1504.6619)
(3460.7438 2129.1101 -15.233633)
(-128.211 444.90269 2684.9875)
(4646.6922 -5780.5628 400.00395)
(-3267.9306 2195.2081 -446.81498)
(-2989.0071 434.3496 1551.9173)
(-186.10763 2746.62 -2800.8945)
(-104992.14 4440.3408 2418.2735)
(-1202.924 -2239.8315 2505.8654)
(9801.2585 -6780.1815 -3719.6059)
(6762.4188 1392.5286 -687.54765)
(708.03587 -1642.106 1102.5636)
(-5348.5456 -927.2892 1083.1048)
(-8900.2193 3670.2534 -35.86108)
(-2763.4252 -742.11295 1311.3812)
(314.28079 3237.2962 -2223.1588)
(-106808.6 -528.22984 5742.0969)
(-750.15007 -2395.8376 2026.377)
(12345.024 -7960.2978 -417.89483)
(8500.8332 1553.9482 260.9819)
(1199.3462 -2488.8374 1027.455)
(-6090.4221 2584.0028 71.450295)
(-4450.961 4496.5411 732.26586)
(-2434.3182 -952.37232 1635.9014)
(824.42102 4421.4613 -2464.9585)
(-107587.45 -1909.1349 7649.162)
(-519.57245 -2453.4585 2062.4718)
(12111.859 -7475.5966 954.66363)
(9547.6151 2077.7072 1153.4256)
(1565.6263 -2904.5583 1667.2942)
(-4340.5557 933.43181 -1807.3284)
(-4029.6997 4994.6438 1142.7895)
(-2217.7524 -961.77329 2375.6539)
(1607.2027 5464.296 -4642.6903)
(-106246.9 344.24278 10317.624)
(-517.21697 -2314.9699 2210.2745)
(-828.651 5960.4975 2886.0872)
(8066.1516 2517.6832 1427.909)
(1756.8555 -2372.6156 2727.9073)
(4304.3483 -6097.9751 -3203.8089)
(-3006.4391 3789.7771 1587.0978)
(-2076.7177 -212.57792 3665.958)
(4165.3856 6934.1327 -9434.7616)
(-102397.15 8690.699 14069.708)
(-723.20681 -8.1018812 -330.19815)
(-1034.3022 11222.264 -2160.6005)
(7919.0101 3224.6762 1881.1229)
(1219.6763 -6.4447464 2798.0122)
(9681.0193 -7732.8792 -1665.6951)
(-3884.7321 907.43127 2511.6461)
(-1486.0685 818.26793 4444.7623)
(12949.639 11693.976 -15908.573)
(-38200.915 -14891.689 90125.167)
(3995.1002 10435.702 -2879.7005)
(15532.38 11198.913 -4893.9571)
(8086.4471 2933.0544 9040.6834)
(425.87557 1040.2341 5677.9132)
(9882.8865 -9266.9161 -2772.9647)
(6840.395 -97.367429 6770.7609)
(-901.56258 -446.48828 4618.1952)
(10558.181 45695.66 -17130.439)
(18038.426 -21093.691 42580.135)
(-11640.78 -1196.9088 18979.269)
(-14022.919 3217.7898 28567.877)
(-2731.6827 -6295.1139 14816.215)
(-909.01892 -5283.8229 8553.2697)
(18917.544 -657.84945 -31259.199)
(-3708.1566 -11633.876 7395.367)
(1258.1323 -5265.0284 5311.7354)
(5616.5989 -4559.2401 -20154.47)
(-1406.6864 -2851.0611 4513.5382)
(2215.9787 -568.75163 -6175.7909)
(2228.5385 -182.00369 -3415.4453)
(1520.8176 -105.61377 -5882.2711)
(2166.9007 20.961961 -3902.6972)
(6492.9165 2866.934 -3419.1534)
(3388.1788 -2267.2271 -7322.0742)
(3184.8261 -902.20321 -5288.0557)
(-8954.7472 -7825.5068 14277.801)
(3324.5751 -85.045681 -3473.1302)
(3215.9441 -599.97623 -5231.5354)
(-65178.844 -29387.89 73037.876)
(-931.78277 299.34107 -2811.5075)
(14695.824 -459.5305 4226.55)
(7238.7176 -5946.5462 -10066.228)
(-286718.99 103433.95 403723.84)
(3772.3016 43.408591 -3920.7028)
(-45658.219 59527.114 65661.882)
(4869.4017 4255.9296 -2738.8207)
(-38143.601 -25411.233 13364.753)
(-586.05468 -708.13384 -2835.8066)
(9252.6018 445.23021 -3446.7368)
(7940.9191 -4390.3464 -220.22146)
(-136712.46 82478.972 165426.58)
(4789.4327 -846.15766 -5473.8526)
(2090.3253 302.28209 -3735.912)
(1688.5568 1408.9432 -5480.6737)
(1564.2257 -396.11621 -4848.7463)
(5194.4828 -374.60304 -3454.6031)
(-1262.3523 -2660.4561 -5692.1362)
(1187.2727 387.11024 -3467.3323)
(-22066.706 351.26389 -9837.4566)
(5427.965 -2345.8436 -2919.4402)
(1728.2037 -529.73483 -4982.3831)
(3085.9932 -761.44453 -4604.7357)
(-1497.5706 -1572.6441 -8996.3948)
(3145.2329 467.3134 -5797.8728)
(-38287.34 2525.7873 -22463.097)
(4531.179 -1004.2151 -5312.9973)
(31337.316 -14415.077 35021.641)
(-4403.0803 23442.072 23261.09)
(2765.4662 24.355963 18099.462)
(13558.03 -9788.4767 -21219.262)
(-2841.846 70958.216 -40573.71)
(-8480.4366 -9118.0573 5503.2183)
(-1904.363 -6982.8543 8762.4951)
(-1615.8734 -11124.838 8795.7481)
(-223.92751 -6391.9703 6115.5354)
(-10406.684 -13067.25 7143.2159)
(-1996.2862 -9700.0966 6062.891)
(-1930.5408 -7765.9647 3831.8223)
(1250.9944 33496.008 -67521.797)
(-18997.688 28340.714 -7555.4231)
(-62389.571 455504.39 -23661.839)
(1595.3975 -300.67695 -5140.9313)
(2288.5008 68.629744 -3659.6841)
(2223.0467 -663.07474 -5755.9791)
(2853.8757 -15.541508 -4521.2458)
(2589.4481 248.87109 -2992.0508)
(2968.3723 1050.9691 -186.70296)
(3111.3806 365.81943 -4195.9614)
(5798.5415 2554.0302 -1552.2007)
(1709.2918 -202.70887 -5556.5424)
(-3262.4535 9764.7017 -3160.0173)
(-354.71653 1322.4718 -5075.3661)
(2800.0627 -1084.0921 -5378.552)
(-15747.09 -7388.8706 59082.589)
(4015.5771 221.27248 -5037.8737)
(3582.3765 110.93473 3528.7132)
(7521.4671 4173.9367 1846.015)
(12312.26 530.37352 8304.4562)
(-3371.0661 96.595074 -4663.5206)
(9171.28 -6067.5077 -4984.2795)
(1496.892 -1091.8861 -5732.3186)
(-63750.834 -5193.794 106972.68)
(3319.7399 -175.17682 -4572.7176)
(-31074.635 38497.827 49744.713)
(3002.2999 2184.4204 -4545.9236)
(1868.633 -830.55188 7170.0157)
(2828.9232 -1652.3241 885.37026)
(12321.015 -2247.4078 5612.1355)
(-7909.0762 -11560.922 35905.737)
(6056.3113 -3381.3979 455.35)
(2265.3563 -562.21212 -3928.4222)
(924.3076 252.77084 -4642.776)
(1867.8207 -90.39503 -3941.7889)
(2979.0643 293.30848 -5772.2684)
(2627.1928 -308.3047 -4678.0247)
(1456.9521 978.8795 -5508.9181)
(2299.4626 -77.526653 -5289.9893)
(2768.6043 -1377.66 -801.36729)
(2062.4654 -660.66395 -3477.2136)
(1918.689 -606.79466 -1998.2618)
(2878.2677 -417.03941 -4198.0908)
(4808.0236 -2254.0513 -2029.8352)
(2446.6211 -928.43522 -5270.5401)
(2808.6611 -596.60275 -3728.4023)
(2185.1211 -247.52317 -4112.9494)
(2714.0528 196.27772 -4980.2468)
(2804.1867 91.312911 -5909.1295)
(2081.5264 432.31971 -5613.5447)
(-5227.1601 -4597.535 -14321.821)
(258.72729 1077.4741 -4255.2007)
(-1283.2642 1226.647 -5121.2825)
(8401.712 2956.5252 -2451.0949)
(3597.1971 -46.093059 -5942.9517)
(10621.491 -733.8982 2973.2344)
(-6255.8887 -8909.3524 -23445.105)
(1022.8309 -6455.7968 -6947.6094)
(-6170.8286 788.82212 -4323.4895)
(-137738.28 35959.175 122895.65)
(2725.8548 35.252416 -5858.9927)
(4121.0075 644.55201 -5138.5021)
(3028.446 -440.92945 -5602.5931)
(94.690005 -14.747442 -4308.1274)
(-1147.7002 1338.857 -4917.3001)
(6223.1761 -901.08062 -3162.1216)
(1332.0469 -1640.7131 -4534.1525)
(10285.475 -2112.131 2270.6519)
(3530.3601 -441.6364 -5408.562)
(6823.0182 -2138.2547 -2411.9312)
(-4343.5503 1894.2595 -4672.6586)
(-92360.306 51850.697 75710.78)
(1441.6401 -616.6444 -4933.0829)
(3311.9557 2531.4123 -6254.7428)
(34169.865 6812.6176 -110360.05)
(1905.1805 -7224.3176 42973.333)
(8544.4158 -3390.6753 692.68605)
(1767.3989 -19285.487 -5771.9028)
(9488.3639 -10847.712 8296.1866)
(-224521.56 -71105.432 201492.76)
(13428.682 3639.2446 1102.4116)
(3819.909 -2013.7826 -6158.6656)
(3655.6968 -880.74416 -4341.768)
(1861.1616 -638.02481 -3624.699)
(1883.2156 -1505.8821 -4701.3818)
(2435.1331 -877.27349 -3421.472)
(3344.4 -797.11274 -4044.9045)
(1111.6606 -85.18797 -4683.6034)
(-19619.087 985.98349 -9492.0371)
(1721.5004 -88.959765 -5483.5355)
(1013.1431 403.09088 -3875.6215)
(-2599.0647 -7038.6807 -5167.4159)
(-8663.7309 -4934.8158 2198.8205)
(4435.736 -1315.1141 -4700.2449)
(-262472.33 -157446.17 398288.55)
(-1638.2641 855.35773 -2769.5796)
(4297.8811 -713.53363 -2504.2092)
(-196682.42 226327.72 26243.608)
(1122.6759 4908.4056 87.716528)
(-229538.86 76254.316 283798.97)
(-6461.6157 -8756.0831 5829.0983)
(-11183.79 2577.022 10757.743)
(-1574.962 58.89369 -2455.8818)
(10631.422 480.49243 -1361.0755)
(-267.4244 5735.4351 931.86346)
(-1439.0786 -7951.7648 1708.5288)
(-11560.96 9950.0859 15861.951)
(-4737.9774 5977.6046 8152.8023)
(-4935.8696 5842.6523 3938.6978)
(-3454.2164 -255.06349 -8587.6571)
(1227.3875 359.85712 -3425.5378)
(3382.9967 -4073.638 -1483.6067)
(-5557.4053 -3782.9215 -2799.0291)
(1529.9296 168.21465 -2349.2192)
(-1967.9837 4820.9132 -4669.6103)
(4454.5206 -1399.5437 -4500.4404)
(2472.2437 1586.8222 -1349.8554)
(-4762.9829 4483.3833 1155.6401)
(8823.3981 -4011.9725 -2609.5777)
(10768.456 29554.456 -9858.8155)
(-350975.28 -31391.864 -1027160.2)
(7261.3331 8759.2313 37180.353)
(-125427.93 -84850.267 58088.542)
(-49243.444 32401.259 -8375.2581)
(-5039.7764 11919.322 -19852.417)
(-47360.105 9313.1607 2996.4348)
(-4064.5139 -4162.3691 16436.496)
(7822.0268 -26200.42 6557.2027)
(457.63332 -14860.084 9902.569)
(-48041.327 39735.122 -2453.9648)
(-15454.625 -11322.119 7803.4986)
(-260762.86 767434.78 -124590.14)
(-3220.2829 -9411.3466 2993.3621)
(1190.0847 -5900.0589 4958.5366)
(-335.88698 -6056.7203 5392.466)
(12243.184 -4816.2911 -13330.443)
(-10411.316 33373.85 -13277.34)
(189.41077 10144.731 -5614.6265)
(-37703.239 -40106.067 -11814.413)
(-1212.8813 -13789.532 3809.7689)
(-7070.5329 -593.02908 757.79957)
(1356.0227 -290.33166 -5452.0054)
(1872.1588 376.85405 -4349.1567)
(1835.1271 -279.58895 -4498.6715)
(1947.1966 -214.21143 -4858.1866)
(769.01636 1960.1622 -5917.4025)
(1916.5803 587.60818 -5342.0683)
(1379.2085 -200.9148 -5703.3443)
(-217.6123 104.83287 -5488.9814)
(-632.05443 1275.5519 -5659.4626)
(1130.1659 454.38118 -5642.6134)
(553.28683 -523.14222 -6402.7199)
(3516.0252 81.020599 -6098.8552)
(2014.7884 361.89391 -4749.6918)
(2827.853 861.81958 -2836.7268)
(3508.1896 575.67301 -5586.8609)
(-89.801331 1305.884 -7194.8393)
(3730.2038 1141.3943 -6570.5731)
(2951.5542 -551.9076 -7330.0603)
(4583.2449 -10895.137 -25312.154)
(-3327.9966 -396.03089 -9379.9145)
(3337.0089 924.8782 -9697.4292)
(210.28315 -6988.7065 -15432.783)
(6156.0855 -2150.6998 976.10436)
(4482.8434 -627.55431 -4182.8518)
(8743.3189 -1594.8657 -1402.1278)
(1841.53 92.625657 -2671.2454)
(8121.4969 -2520.015 -1934.3422)
(2868.239 -34.923358 -3145.9254)
(6287.193 -3178.0482 3065.4412)
(3286.3482 617.78333 -914.07294)
(507.87759 -0.99623362 -2841.5137)
(2375.8319 957.51708 -3613.9736)
(-6501.0043 2522.8322 -5382.7714)
(1699.8822 1089.3102 -3404.3537)
(1486.5131 -1149.4459 4268.8937)
(2543.063 785.43714 -2442.5923)
(20411.81 38532.821 13402.008)
(10971.922 2584.2232 1889.5283)
(4783.2408 2245.9283 42784.336)
(39312.164 -7865.7324 -16302.535)
(13969.052 18370.258 22564.158)
(16192.64 4367.9244 -8308.7098)
(-117917.25 -694.36055 266820.41)
(17020.933 37206.969 31967.2)
(-96446.969 -39767.429 263873.04)
(-40934.611 -28712.357 36094.516)
(-1176563.5 692957.87 2601004.9)
(12205.637 -5024.1607 -5641.4278)
(-575939.58 -228414.06 1147328.2)
(-24495.644 19311.647 131521.61)
(5779.2108 -368.15895 -1733.4232)
(7672.6141 -346.72784 -1421.3836)
(3056.7055 -32.123006 -4392.9761)
(1758.9848 -124.85807 -3185.6283)
(4248.797 1986.4482 -3570.4996)
(3620.5862 -1403.2013 -3059.689)
(5218.114 -1044.1896 -1104.3473)
(859.10997 -568.45918 -3239.7518)
(2672.7731 -2158.1501 -1808.5884)
(3374.0412 -1600.9742 -2673.8219)
(502.62373 -1196.6387 -1250.9189)
(-50763.184 56416.827 -62628.508)
(-4728.3202 -13509.304 5233.9648)
(-66508.97 -47680.395 140236.52)
(-675599.65 -219579.57 1264344.8)
(15854.746 8452.6132 728.34994)
(-186930.45 -490885.11 935653.3)
(2070.6674 -569.16976 -4850.982)
(2681.9218 -351.46273 -4535.8989)
(2072.0557 -446.45306 -3573.0729)
(1767.556 -874.05835 -4616.5305)
(2392.547 -23.663331 -4501.4857)
(1534.6824 -1202.2223 -4156.6307)
(1679.142 -222.18735 -4705.9832)
(1820.1204 -877.47111 -4182.3188)
(2071.093 -118.38138 -6251.12)
(-478.29953 -473.56193 -6401.9791)
(2220.9533 10.593551 -4572.8687)
(111.96007 -3.6158237 -5015.0948)
(1113.3146 -556.07082 -4299.88)
(1294.7272 -468.8831 -4729.0404)
(845.75947 -1896.0034 -3066.0079)
(1638.6704 -593.46383 -3944.9554)
(532.91981 -483.17663 -3656.6399)
(3788.5699 -2634.3294 -8076.9702)
(1327.6367 -1072.978 -5188.7595)
(3061.8308 -1059.2128 -3648.4407)
(2694.8647 -286.94884 -4340.8334)
(3351.1269 10060.247 -30353.322)
(8841.4182 19018.312 16186.951)
(-22155.048 23039.969 31907.868)
(-14918.434 15557.75 6072.1757)
(-31574.807 8670.6126 9366.4002)
(8132.9514 32954.267 8523.3865)
(-18715.032 15830.872 23189.873)
(-5540.4131 7411.345 8498.1659)
(-3662.8422 -10152.317 7787.3398)
(-842.00986 -10011.888 5546.2665)
(-7693.1423 -8945.719 3489.9124)
(-450.95989 -5488.9481 5984.0107)
(-5187.5207 -11888.26 8496.4919)
(-1062.3666 -7919.9296 4770.6553)
(-2358.1655 -7934.1022 3090.0408)
(-20434.442 20742.542 -27270.562)
(-79321.1 34456.924 -45192.576)
(-59170.338 236139.19 -63191.894)
(-162217.07 117459.9 -27946.751)
(-41901.815 125505.06 -65051.306)
(-6366.0181 7391.6515 -16900.202)
(-85918.163 249986.19 -13193.424)
(-60917.524 -17178.626 -20623.765)
(-11765.43 -1944.5548 -351.06674)
(22.752583 -19.848392 -3.6916313)
(17.145701 -15.320258 -1.0498718)
(-53.056439 -14.701012 -7.9042919)
(23.266898 -7.7810238 -16.625402)
(-15.992549 -23.704054 -4.0650236)
(-55.480975 -10.627099 -3.6299446)
(-59.015672 -4.9253576 2.0184757)
(24.095815 -32.735921 -18.703906)
(-5.9900783 -16.098219 -3.6925603)
(14.779944 -8.2487137 -18.246906)
(-42.785232 -6.6731238 -0.5842169)
(-75.263612 -2.1635842 5.2462205)
(-78.938049 14.271806 17.679682)
(-28.069951 -18.280156 0.16120818)
(-0.71155662 33.857129 6.9214829)
(-56.362537 -5.4208146 3.0851889)
(-41.048491 6.8767168 11.982908)
(-93.973238 26.844327 18.454951)
(-56.637883 22.748103 19.80482)
(-42.130704 -1.1966958 2.5444178)
(-7.9391214 19.645023 -4.7300651)
(30.594074 -2.3695316 -13.19335)
(23.027115 13.986803 -13.614335)
(-89.017811 -6.0331816 2.0428264)
(-12.844221 11.310617 -3.2908922)
(-53.973404 12.750659 0.32806385)
(8.2041351 -3.2657849 -19.818815)
(-34.699895 1.0679753 -2.3213967)
(24.633053 13.41403 -12.002545)
(0.93373746 11.474796 -5.0851266)
(-57.203113 0.3838749 15.367191)
(-67.132849 10.458774 2.5585648)
(-39.11512 -30.239585 11.971772)
(-58.207965 1.3854642 0.52362834)
(-41.561831 1.5790807 11.333996)
(-20.840478 10.833481 -1.3727921)
(-18.9588 -20.723145 7.6219543)
(-51.400864 3.732287 16.534862)
(-4.5613791 -29.20222 8.6116384)
(-39.156527 18.405651 -2.0255829)
(22.170504 23.397803 -9.7296573)
(12.78417 13.413104 -4.7656274)
(-9.3234352 13.936984 -2.1920759)
(-11.279359 -29.208713 10.838335)
(34.342708 -18.064781 -5.7629574)
(64.758618 -25.325984 -29.938687)
(69.244305 -13.252276 -9.4978428)
(30.083993 -13.544798 -1.3763648)
(67.390778 -12.164949 2.5173541)
(24.625537 -33.838071 -14.555207)
(37.067917 -7.9083678 -22.921577)
(55.476488 -19.21176 -35.268606)
(70.725502 -4.4806913 -53.328203)
(27.543805 -13.158778 -5.1804907)
(36.598434 -7.4465725 -23.139199)
(13.398348 -4.3637149 -9.0584405)
(69.505802 -18.838883 -31.847661)
(76.897966 -11.618029 -10.9374)
(81.083807 -5.1836814 -45.725537)
(84.412132 -3.516978 -17.198331)
(-3.1675904 20.094473 11.925343)
(4.5484125 -4.5135248 -2.6211888)
(-42.904528 2.2191881 22.111542)
(72.965337 -8.4642264 0.26818399)
(44.983494 10.014641 29.30297)
(79.646055 -2.4848358 -3.7353823)
(45.431831 0.28121961 36.653038)
(-53.541959 16.672493 30.114767)
(31.20186 -0.42043335 50.81903)
(39.908548 -2.6172473 -18.181004)
(40.87055 10.452459 -13.761154)
(67.040915 -1.1989134 -53.018928)
(67.375441 10.406266 -39.574314)
(-52.502904 -0.15210681 26.965411)
(23.106 8.1218651 -2.3177297)
(-12.170997 -11.908901 14.020811)
(79.402323 -1.1577444 -5.171473)
(44.959084 -0.61057116 36.953313)
(78.389202 5.7301417 -2.2077702)
(44.036266 -0.9781876 33.527317)
(-24.62857 -27.634799 19.893464)
(21.630035 -3.9569081 53.621751)
(27.455613 -10.806811 44.594467)
(30.958984 25.222822 -17.834166)
(56.016802 17.00135 -35.617701)
(32.844808 11.944111 -5.610427)
(74.501495 15.108436 -31.670158)
(79.614922 10.743448 -11.826974)
(-9.472157 -24.269322 13.101609)
(75.233781 7.452476 -0.58763949)
(45.770681 -3.168865 31.537787)
(41.512217 -16.455634 26.634254)
(103.8585 -30.504844 -73.749378)
(77.492172 -24.70569 -36.506133)
(87.593971 -11.644848 -10.706279)
(116.93423 -30.173913 -66.811397)
(141.42492 -17.084671 -17.24474)
(84.361173 -9.4289256 3.8467535)
(135.91505 -9.1729308 9.1995295)
(106.78986 10.478923 68.06451)
(64.562687 -19.177943 -44.628986)
(86.867849 -6.7982334 -67.823097)
(119.29698 -34.040898 -84.390974)
(137.71668 -13.748593 -124.87438)
(93.287647 -11.723126 -13.277435)
(96.321528 -6.4511411 -56.815809)
(101.83467 -3.8960187 -20.296214)
(134.2755 -31.128185 -74.604773)
(148.3193 -16.025704 -22.218062)
(147.37119 -10.814098 -102.60927)
(157.73339 -6.5946679 -32.942044)
(58.536304 12.336006 38.093973)
(97.06225 -2.7222115 -3.3131829)
(65.597503 1.0591668 44.305658)
(141.85097 -9.1646789 5.7245003)
(110.50314 10.19437 75.727035)
(150.38422 -4.3330231 -1.5514721)
(117.70162 1.7856571 77.670815)
(50.228492 -1.7652987 60.020653)
(92.564984 15.777364 89.611315)
(101.77205 4.4446408 104.01419)
(81.814757 -2.0548787 -73.365502)
(81.518494 12.910734 -51.778181)
(125.82552 -1.1919531 -138.74588)
(134.99645 28.087338 -101.07875)
(49.155958 -12.628989 55.186192)
(102.4322 0.38632014 105.32618)
(100.12995 -13.382389 97.007994)
(76.384795 17.389415 -43.886912)
(118.0573 32.814464 -89.068426)
(96.047967 10.327729 -14.054545)
(134.84082 30.20451 -77.126104)
(148.37639 15.160379 -22.64748)
(65.025842 -5.0269604 40.557989)
(142.3355 8.8074569 5.1237338)
(111.42037 -10.804664 75.388242)
(92.622283 -16.608854 88.719979)
(119.08189 -35.461319 -90.915009)
(181.53296 -60.173513 -159.1247)
(131.08508 -33.596153 -80.897868)
(162.14108 -20.362278 -18.58213)
(220.41332 -77.663523 -141.27313)
(243.11586 -37.289946 -23.677443)
(154.99158 -10.995957 13.086019)
(123.11206 13.147178 85.017171)
(229.96655 -20.313143 29.969202)
(193.18977 23.838301 158.08625)
(143.1413 21.489666 149.91219)
(137.71675 -40.728644 -103.99514)
(157.54693 -16.295997 -150.36583)
(216.4913 -72.542273 -189.09845)
(257.99133 -26.714133 -256.95131)
(127.08495 13.257882 91.39892)
(172.03765 -4.568902 0.036994312)
(134.43893 1.9631441 90.994075)
(238.91185 -21.366281 22.368683)
(184.17422 9.2248001 150.43462)
(256.20515 -11.374006 2.2365736)
(196.55344 2.4441748 145.55737)
(118.72398 3.3837274 119.21385)
(153.8519 24.191434 176.83937)
(169.46831 4.3457391 184.03182)
(148.35711 -2.3902637 -164.89519)
(153.55472 34.899979 -124.67451)
(16.902882 43.534228 -340.9895)
(258.7876 -2.8538925 -271.8689)
(242.31605 53.824422 -221.40031)
(114.67813 -14.91119 113.51875)
(172.44609 0.21763575 183.07182)
(169.38483 -11.350148 178.2669)
(138.36181 40.083253 -110.76031)
(236.66499 68.969206 -198.17381)
(169.68945 18.235809 -25.98723)
(247.9881 60.519639 -165.68937)
(257.77387 31.64331 -41.063912)
(220.55045 19.402146 -5.6490925)
(128.85455 -9.385283 86.703763)
(242.07786 19.344443 16.476502)
(184.72478 -10.300379 144.24225)
(219.87517 18.169212 43.995666)
(166.95979 -25.447196 180.69941)
(221.88673 -76.037362 -190.60826)
(397.34871 -180.72183 -324.46359)
(261.70975 -94.538598 -168.33798)
(279.71524 -42.828625 -24.461231)
(429.25416 -170.40464 -258.17483)
(429.64544 -75.536612 -13.078365)
(263.53931 -24.536956 39.017599)
(196.07574 16.816294 178.28953)
(395.74914 -45.219164 84.302943)
(284.73913 36.469191 293.82865)
(175.39091 18.352889 206.28743)
(235.13987 37.595886 336.72315)
(265.92442 -83.361449 -229.01378)
(24.184711 19.808449 -237.63324)
(301.79236 -34.146266 -312.07567)
(459.19982 -179.31239 -380.68283)
(274.05859 -28.906339 -594.94082)
(537.47008 -66.161396 -521.95222)
(186.96123 5.7198179 212.30717)
(248.24765 40.088633 342.8708)
(273.39516 4.9215926 336.86004)
(297.0972 -2.7063123 -328.09132)
(287.01155 64.905824 -270.77236)
(318.18088 -8.388756 -768.20246)
(541.37483 -7.8101613 -550.85191)
(500.75313 137.83246 -440.45404)
(188.2624 -12.539458 208.9756)
(276.29367 -1.2869451 337.50541)
(252.90228 -16.580489 336.52168)
(280.39884 83.645439 -241.9079)
(461.81846 176.13264 -386.99833)
(296.57888 38.102349 -44.415235)
(256.80808 23.435492 -6.1649988)
(474.93633 151.52798 -309.9769)
(461.31134 73.305791 -48.634229)
(389.39073 53.347024 27.146299)
(208.45673 -10.866632 170.01066)
(249.30205 18.101604 46.223101)