/*--------------------------------*- C++ -*----------------------------------*\
  =========                 |
  \\      /  F ield         | OpenFOAM: The Open Source CFD Toolbox
   \\    /   O peration     | Website:  https://openfoam.org
    \\  /    A nd           | Version:  12
     \\/     M anipulation  |
\*---------------------------------------------------------------------------*/
FoamFile
{
    format      ascii;
    class       volScalarField;
    location    "5";
    object      p;
}
// * * * * * * * * * * * * * * * * * * * * * * * * * * * * * * * * * * * * * //

dimensions      [0 2 -2 0 0 0 0];

internalField   nonuniform List<scalar> 
94133
(
928.53608
-51936.749
-61443.606
-55018.472
-53884.514
-61435.971
-57313.145
-61291.16
-55443.032
-60422.787
-56503.742
-55488.341
-60813.041
-57719.151
-51522.732
-62336.506
-47313.04
-62826.944
-71719.752
-51219.772
-62941.6
-70214.244
-2813.6951
-93141.716
-154565.74
17227.132
-93120.685
-164673.22
-882.25831
-93137.686
-153796.93
207564.24
-236022.88
-531738.56
1060608.9
303709.33
-224974.19
-563868.61
212721.07
-231086.49
-534534.89
881429.57
-856847.66
-1912066.1
5874331.7
1401775.2
-776512.06
-1973034.3
951652.9
-824248.45
-1899207.6
2151189.1
-3442899.3
-6126190.5
32145606
4320326.5
-3077967.5
-6198820.7
2350255
-3286648.3
-5997047.2
-1202523.9
-12617295
-16265875
1.3376607e+08
3835677.7
-11785095
-16271091
-522303.16
-12035716
-15965132
-32219151
-33784555
-33644084
7859683.3
-33701140
-33468300
-33326008
-29099689
-32801166
-33211380
-32471755
-78874299
-58710800
-52932774
-3.222075e+08
-89856407
-59296767
-52545509
-74765708
-57365848
-52384399
-56087079
-95772873
-75436453
-68202134
-5.3062861e+08
-1.0656027e+08
-75554565
-67591562
-90898663
-73579095
-67455973
-72681098
-89407063
-81890946
-77093992
17833480
-91898126
-81117422
-76404156
-84517483
-79720971
-76202627
-79542244
-86253820
-83580406
-81121299
1.0040793e+08
-83596859
-82221706
-80456544
-81810075
-81478522
-80233529
-81833975
-85590031
-84140551
-82800778
1.0407775e+08
-81023816
-82671236
-82215718
-81610601
-82327528
-82012980
-82824168
-85624426
-84384574
-83511754
1.2742019e+08
-80377873
-83017767
-83016367
-81875923
-82855637
-82839605
-83283479
-85218094
-84441816
-83803407
1.5065291e+08
-80239199
-83266899
-83395402
-82066487
-83169662
-83239060
-83497577
-84928658
-84394136
-83905716
1.8136874e+08
-80040200
-83406264
-83569137
-82150727
-83322339
-83426013
-83574692
-84803380
-84346044
-83931072
2.1745032e+08
-79715116
-83457930
-83630575
-82124596
-83369019
-83487146
-83559497
-85133321
-84370994
-83956740
2.1331299e+08
-79671795
-83438532
-83640743
-82108444
-83333710
-83475170
-83530488
-85319482
-84440590
-83989086
1.7352404e+08
-79871132
-83347859
-83613379
-81946837
-83187671
-83386235
-83421094
-84929617
-84406611
-84028093
1.2931098e+08
-79697752
-83118300
-83580224
-81454572
-82792813
-83208591
-82997174
-84281486
-84189487
-84337256
1.3163225e+08
-78770388
-82631429
-83840701
-79563919
-81755048
-83088673
-81627912
-81769823
-83898337
-87183244
1.1787193e+08
-76427665
-81999683
-86995255
-73604659
-79258583
-84191273
-77515967
-69844039
-83754318
-1.0657096e+08
91750293
-69556026
-81225430
-1.076797e+08
-55884294
-71594537
-93058680
-63794604
-7382977.6
-76403348
-2.3726831e+08
-6.3566654e+08
-23665751
-74648910
-2.7342989e+08
12288376
-34754774
-1.4482772e+08
-5626711.9
2.8428136e+08
43485710
-1.1147185e+09
2.5106075e+09
2.4406281e+08
72281072
-1.6227874e+09
3.3333873e+08
1.3517389e+08
-3.2012311e+08
2.5742603e+08
7.603377e+08
8.4390732e+08
2.2316171e+08
3.7786639e+09
6.5872532e+08
8.2817793e+08
8.3643513e+09
7.6576548e+08
6.1239484e+08
4.1802675e+08
1.1557583e+09
8.6434546e+08
1.4241186e+09
8.3267544e+08
1.0211212e+09
1.7202804e+09
1.1120768e+09
7.8345751e+08
1.0159707e+09
1.3860971e+09
9.8264234e+08
1.0203264e+09
8.5992928e+08
1.0153453e+09
1.0282495e+09
1.4621282e+09
7.7280224e+08
9.4919746e+08
1.6352752e+09
1.0533387e+09
8.8130205e+08
1.3073312e+09
1.0428469e+09
9.4568334e+08
1.3080928e+09
7.7577272e+08
9.0877883e+08
1.817238e+09
1.1198442e+09
7.9587335e+08
1.4889292e+09
1.0594773e+09
8.9056353e+08
1.2376118e+09
7.5784362e+08
8.5121163e+08
1.9725296e+09
1.1167193e+09
7.0384393e+08
1.5018664e+09
1.0206247e+09
8.1131886e+08
1.3561275e+09
7.0902681e+08
7.5050776e+08
2.2300232e+09
1.0912985e+09
5.8502705e+08
1.1952643e+09
9.2474044e+08
6.7805414e+08
1.8267141e+09
6.3099369e+08
5.6283303e+08
3.0641999e+09
1.1300088e+09
4.3592012e+08
1.180874e+09
7.528804e+08
4.3893819e+08
2.1905918e+09
5.0812596e+08
2.0643943e+08
5.7945517e+09
8.7790186e+08
-1.1605324e+08
1.5976728e+09
-43904628
-2.7097461e+08
2.0910789e+09
-41248420
-2.8809787e+08
8.5994336e+09
-1.758786e+10
-6.550958e+09
-8.9759634e+09
-3.088123e+09
-2.5695957e+09
6.7167013e+08
-7.2989336e+08
-8.7878055e+08
-1.2410044e+10
-2.8792951e+09
2.871864e+08
83248323
6.4524714e+08
49602799
-4.0999874e+08
49414788
3.1423531e+08
2.2679911e+09
2.5660751e+08
6.4028436e+08
-3.1322688e+09
5.7808803e+08
-1.8114922e+09
-1.0303718e+09
2.0030484e+10
2.5843285e+08
1.8572141e+09
3.2576728e+08
8.1108256e+08
5.9105965e+08
7.0173885e+08
-5.3448424e+08
3.6358728e+09
-4.8718494e+08
1.6548744e+08
3.6904896e+08
2.4094605e+08
6.9239558e+08
6.199994e+08
7.5858658e+08
8.4745928e+08
-1.4848449e+08
2.2174142e+08
63620565
5.7558793e+08
2.3813526e+08
9.8216176e+08
4.2919667e+08
-1.4127689e+10
-5.4484888e+09
-3.7209869e+09
-1.4566272e+10
-2.8636316e+10
-6.7146557e+09
-2.6218406e+09
-1.4539297e+09
-1.1196968e+09
-5.3611396e+09
-4.5069827e+09
-3.0054719e+09
4.9227422e+09
-3.4721807e+10
9.6943502e+09
-4702025.5
-47219578
1.8175447e+08
51424144
-71458927
-1.64991e+08
-10160876
-3.4061585e+08
-6498624.5
-3.2203348e+08
-37770253
2.0402164e+08
1.137048e+09
1.6655719e+08
-2.9142936e+08
-7.5093853e+08
-1.3450853e+09
-47494782
-75233950
-6317115.5
1.7071806e+09
1.8826921e+08
6.3568357e+08
1.8936222e+08
-4.179841e+08
-1.7697125e+08
-1.1797872e+09
-3.3463297e+09
-4.1930724e+08
-14977992
30802329
3840637.2
2.1414053e+08
1.1597637e+08
2.4720826e+08
1.6248727e+08
-1.1353617e+08
-11930023
-64205699
66827941
-1.5509068e+08
1.2579913e+08
2619588.6
81185657
2.6880404e+08
1.5247124e+08
6.3305365e+08
7.0027535e+08
5.7879964e+08
5.9466462e+08
-6.0536838e+08
50138004
-1.2099329e+09
6.7442477e+08
-1.6683269e+08
6.0151596e+08
6.8071976e+09
1.6515809e+08
3.0590799e+08
1.9914475e+08
5.900801e+08
5.9288827e+08
6.5936996e+08
5.8185215e+08
-1.098381e+09
1.3305488e+08
-2.6738453e+08
6.0215463e+08
3.6457292e+09
5.3056643e+08
1.1765178e+08
-8.0534547e+09
-6.4073418e+09
-9.3798796e+08
-4.2570311e+09
-2.7003021e+09
-4.6340644e+10
-1.738667e+09
2.6022362e+08
64109805
1.7799719e+08
3.1545898e+08
77450010
1.6666948e+08
2.5242269e+08
8.5886443e+08
7.7401549e+08
1.0952239e+09
4.1110476e+08
1.1059464e+09
7.7211654e+08
2.5773375e+09
6.1722603e+08
1.1128495e+09
7.1857259e+09
8.6880666e+08
2.9292025e+10
1.5710919e+09
2.6972842e+09
6.2602925e+08
7.3731044e+08
7.9433365e+08
6.1279655e+08
4.6677375e+08
2.0806596e+09
1.1824562e+09
6.6961725e+08
8.0341664e+08
9.8050596e+08
8.5540051e+08
1.1898305e+09
4.7732066e+08
5.3181918e+08
7.6169847e+08
9.1565771e+08
8.5322918e+08
1.0389287e+10
4.2327034e+11
-9.4164096e+09
-3.8008694e+10
-1.1612917e+10
-7.5796803e+09
-3.5971386e+10
-3.2924606e+09
-5.686854e+09
-1.6884094e+09
-3.0872644e+10
-6.2081861e+09
3.5753682e+10
-3.2158261e+09
-8.623437e+08
-2.8180072e+09
-1.221382e+10
-2.8361662e+10
-4.5837633e+10
-4.4923854e+10
-4.6479633e+09
-2.9525435e+09
3.71454e+08
1.13143e+08
1.748829e+08
1.8483456e+08
3.2505613e+08
3.6177301e+08
4.4408889e+08
6.6419348e+08
4.0422403e+08
4.3691014e+08
6.6497962e+08
1.3680939e+08
84251390
-1.1367291e+08
-4430440.1
3.1692018e+08
31283064
2.3426277e+08
3.5487867e+08
4.0692604e+08
1.147465e+08
4.9952442e+08
4.8690491e+08
3.0212775e+08
3.6547671e+08
4.3881101e+08
3.3579429e+08
4.3444852e+08
4.9219067e+08
4.9820258e+08
4.7672052e+08
6.0699456e+08
2.9450446e+08
4.7935876e+08
4.8835835e+08
5.0527105e+08
-1.5036578e+10
-1.5527838e+09
-6.6831738e+09
-9.6357608e+09
-4.9258735e+09
-3.8062898e+09
-8.4023038e+10
-1.9953912e+10
-7.6804209e+09
-8.0217223e+08
2.3042497e+11
-4.1918696e+09
-1.2695392e+11
-2.3009781e+10
6.3691654e+08
3.45534e+08
2.5300739e+08
4.3809632e+08
2.9947216e+08
4.5800465e+08
7.1334175e+08
4.7912945e+08
6.3556294e+08
5.1322207e+08
7.9787252e+08
-1.1392765e+10
-4.7536092e+09
3.6945659e+08
8.0122134e+10
-1.962397e+09
1.7783796e+10
4.5912506e+08
2.3833695e+08
1.991697e+08
3.4575267e+08
2.6270827e+08
4.1702585e+08
4.7146401e+08
2.1563399e+08
3.0794233e+08
4.8459224e+08
2.6998462e+08
4.9256012e+08
5.3240487e+08
4.1725976e+08
6.6940709e+08
4.8332554e+08
7.2336926e+08
3.4103419e+08
3.8715381e+08
4.3528258e+08
2.3890998e+08
4.9903247e+08
-6.1732225e+09
-1.9105798e+10
-1.0533159e+10
-1.0401637e+10
-8.1426412e+09
-8.9571305e+09
-8.6959112e+09
-2.8718899e+09
-2.3509822e+09
-4.1811984e+09
-2.7744478e+09
-3.223722e+09
-1.9489763e+09
-3.258331e+09
7.1482398e+10
4.2542343e+10
-3.4602447e+10
-3.3326057e+10
-4.3707344e+10
-6.5163333e+09
-1.6510414e+09
-3.9134658e+10
-5.6510268e+09
-54626.7
-54295.341
-66958.907
-64436.447
-50902.063
-60507.602
-54294.408
-60768.438
-54793.597
-61413.493
-56163.278
-53838.782
-53756.972
-54449.106
-54080.332
-55658.231
-54840.856
-53470.17
-54512.98
-64939.621
-62668.936
-63203.02
-62449.354
-55653.742
-61378.547
-57838.124
-61061.672
-56689.457
-61214.322
-57816.023
-54460.134
-57197.307
-55201.137
-56144.605
-55164.486
-57150.299
-55907.822
-54683.363
-55259.102
-58100.837
-61480.894
-58119.554
-57401.41
-55934.62
-55807.071
-56648.129
-58695.31
-55336.66
-59512.632
-63967.148
-62838.591
-54629.966
-50965.301
-55922.349
-60787.866
-56707.839
-55685.738
-58725.223
-53124.583
-58730.357
-54936.194
-56235.338
-55628.914
-59742.91
-62209.035
-60186.579
-63581.343
-55425.829
-64201.117
-61813.791
-61366.019
-50322.884
-52339.471
-55828.531
-57518.793
-56574.348
-60298.522
-63679.563
-60594.484
-63292.441
-56134.432
-64416.807
-63989.352
-61559.142
-54072.169
-58275.787
-55322.03
-59479.983
-56497.553
-60641.106
-62811.272
-64005.862
-15519.392
-53395.23
-60055.639
-28594.921
-68552.957
-62170.221
-79765.689
-108476.44
-48776.956
-43375.054
-6899.428
10995.319
-59936.526
-47810.586
-59743.628
-22716.855
-67999.896
-10595.485
-66816.922
-67443.938
-62778.173
-69901.56
-80438.551
-112585.71
-81548.912
-117833.92
-70889.443
-119224.17
-126232.61
-42567.387
-46027.275
12731.464
2783.2648
-70952.118
-126792.43
-123413.6
-48336.541
-3914.8813
-60412.782
-21442.139
-67975.215
-68886.183
-80627.67
-112877.09
-119739.77
8396.9855
171862.67
-12196.036
-74631.841
95216.34
-119221.07
-92188.304
-137563.19
-178183.22
-331998.76
-382228.03
22700.761
49314.634
219829.97
304233.93
-144037.93
-93878.81
-150992.89
-179017.25
-341779.79
-176508.13
-362534.16
-164399.84
-376920.74
-408843.43
51836.345
36791.115
729609.62
309754.97
259976.15
-160217.24
-409097.07
-395387.6
26809.929
224018.95
-73411.196
131121.85
-111548.44
-121040.92
-143082.92
-176117.88
-343206.39
-170609.14
-387415.67
278310.89
874598.79
165473.37
-150622.12
522387.11
-381075.59
-236841.64
-457707.96
-624288.19
-1224198.5
-516158.48
-1350213.8
347302.39
1099571
473103.9
1072256.9
3672143.8
1530339.8
-562361.99
-1400065.3
-1450142.9
481662.85
406664.41
3820137.5
1579252.8
1316681.1
-546115.16
-1452777
-1413606.3
352346.37
1137597.9
-138607.7
-153241.26
691664.23
-332515.81
-389370.74
-472495.91
-223911.01
-588675.96
-1235942.9
-593850.04
-1396208.1
1243509.7
2855922.5
697548.57
-548657.24
1345440.9
-1735829.9
-880824.39
-1686724.3
-2508524.3
-4238273.4
-1849870.1
-4548212.3
1507785.9
5635675.6
2194198.2
3647762.4
19509505
5870311.5
-1968949.6
-4649159.3
-4718121.1
2273447.3
1868786.8
20772139
6145721.6
14788865
4680183.8
-1925058.3
-4721577.4
-4618098
1601912
3857222.8
-473554.79
381419
-560459.05
2008711.2
-1506657.3
468582.28
-1788090
-1689765.3
-838606.42
-2326609.8
-4149236.9
-2432437.5
-4548662.2
3487289
3813267.7
1462154.9
-2562562.4
-374290.52
-7924094.8
-3540814.5
-5648091
-9487615.2
-12308641
-6012407.9
-12694876
4554120.8
29479691
7771948.4
5910366.4
84623976
12981945
-6195286.6
-12823519
-13061857
8189823.7
20262651
6008395.4
96353631
13915227
51132724
8801834.1
-6076190.9
-13047842
-12867755
4867755.5
6247238
-2244715.8
319877.42
-2631688.1
1378107.7
-7149193.7
-2310214.7
-7842168.9
-5518401.9
-3446748.8
-8878802
-12138072
-9184650.9
-12768751
2269944.3
-16737232
-2738418.7
-11200591
-21311760
-26787552
-12817937
-15486088
-27558737
-28681764
-16116156
-28870339
4598487
1.1322053e+08
12935023
-16082087
91946741
-13475409
-16300483
-28817553
-28631030
14158944
65794532
8072549.8
96639319
-13088145
59989233
-12426514
-16056449
-28574541
-28454085
5176950.2
-13206695
-10199847
-4585575
-10880363
-18400782
-25499678
-19781555
-24986434
-15352193
-12335767
-26577561
-28158034
-26254375
-27943077
-28420764
-26429989
-27231937
-29028123
-72530229
-31708764
-33638669
-65716996
-54645875
-33761425
-33753377
-52634811
-49131273
-33729231
-48460206
-29974238
16285426
-33255858
-77345841
-2.5904008e+08
-93953674
-33401791
-48322115
-48028853
-33646312
28406348
-27424654
-2.9259025e+08
-96129934
-1.5711819e+08
-78660775
-33236973
-47948677
-47568176
-47821128
-26088520
-71840648
-32431093
-28120663
-31359105
-64881744
-53619477
-56892811
-51770179
-33170838
-32301599
-32990774
-51664165
-48385414
-50416255
-48422092
-47796832
-31809166
-51487235
-50527767
-84292223
-1.0209631e+08
-75466543
-60995908
-92386622
-75462929
-58392449
-53943287
-72149539
-66346479
-53104600
-65220073
-89662344
-3.040972e+08
-1.0885351e+08
-1.0607187e+08
-2.7139108e+08
-1.2412372e+08
-52622191
-64984450
-64506179
-1.1146491e+08
-1.9022396e+08
-91473892
-4.9581589e+08
-1.295202e+08
-1.8926519e+08
-1.062835e+08
-51488804
-52417371
-64425912
-62722619
-64287292
-83888356
-99433581
-59936135
-65370900
-57795783
-90361488
-73742867
-81794620
-71735685
-53140198
-55904858
-53237495
-70618187
-65274994
-69165156
-65505864
-64282792
-57465087
-71470410
-69527321
-1.0212567e+08
-94681758
-93965721
-78545894
-91691295
-83393844
-75327696
-69596284
-81115208
-76643042
-68460781
-75692473
-1.0417695e+08
-2.3213743e+08
-1.2107031e+08
-93344485
-40464363
-98047760
-67689098
-75439542
-74868893
-1.2843541e+08
-1.4219465e+08
-1.0335458e+08
-18674069
-1.0235584e+08
-1.7791176e+08
-91815971
-65885976
-67457295
-74759405
-73333611
-74564956
-97827089
-87931802
-76509095
-84031888
-74788413
-85976720
-80546134
-84754472
-79817646
-68443417
-72312037
-68714998
-78842236
-75310460
-78191964
-75577385
-74573358
-74577727
-79759543
-78481177
-92447859
-89992837
-90498540
-84052167
-88516604
-84867159
-82114619
-78203618
-83699900
-81210934
-77349130
-80642033
-91042228
-22063262
-93139330
-87262137
11830240
-82967241
-76526510
-80423068
-79871237
-96515930
-1.6659764e+08
-89409137
99979599
-84837410
-1.0074771e+08
-82471576
-75162120
-76202860
-79745317
-78992311
-79525729
-86299170
-82243445
-81018658
-84396322
-80617554
-82165963
-81624644
-84056019
-81964723
-76840482
-79293195
-77083580
-81184978
-79866025
-81278261
-80043142
-79523198
-80601910
-82035681
-81447366
-89552297
-89365155
-88142450
-84982343
-87697869
-85164728
-83973911
-81828930
-84462010
-83015899
-81335134
-82689563
-86663194
25608783
-80933533
-85886491
44608755
-77585319
-80587786
-82508269
-82023792
-82502611
-80182107
-80797213
1.1642948e+08
-78843601
-82160115
-78999974
-79841439
-80240739
-81902079
-81572034
-81699087
-81518015
-80940608
-81761490
-83993121
-82244006
-81585537
-82184761
-84313922
-82864455
-80506239
-81684394
-80672076
-82152431
-81815164
-82529480
-81944161
-81693344
-82328792
-82960732
-82641493
-89227937
-89339134
-87585611
-85202333
-87550088
-85262409
-84560803
-83265344
-84737271
-83744954
-82976548
-83536147
-85775475
52296704
-77090039
-85628035
68086116
-76029828
-82337182
-83387646
-82978799
-78362808
-66126389
-78642643
1.3878839e+08
-77235830
-84512126
-78866431
-81953411
-82020975
-82870764
-82732671
-82694991
-80907428
-81105194
-82329470
-84340089
-83011715
-81828393
-82691331
-84433020
-83312449
-82106693
-82722573
-82227511
-82745695
-82722483
-83122761
-82816249
-82688668
-83106967
-83398398
-83199920
-89543318
-88830832
-87604097
-85267348
-87201993
-85189843
-84767040
-83844727
-84770858
-84021706
-83654657
-83874533
-85911533
75994559
-75800465
-85158840
86498420
-75320415
-83122168
-83754406
-83417596
-76966340
-74652261
-78855595
1.6194504e+08
-76380597
-85014885
-79199720
-82906878
-82846972
-83325512
-83266769
-83172985
-81160626
-81372444
-82794703
-84407134
-83381931
-82055792
-83017793
-84446316
-83528188
-82863150
-83213673
-82950027
-83105635
-83167939
-83403993
-83231324
-83164902
-83463547
-83598763
-83458341
-88676232
-88189369
-87092428
-85148061
-86711824
-84990980
-84754314
-84053841
-84668880
-84095535
-83917999
-83986255
-85128695
91840771
-75235179
-84970811
96865792
-74964278
-83484160
-83890562
-83616849
-76206995
-82366356
-79232399
1.8605631e+08
-75461238
-84154410
-79383978
-83347432
-83248583
-83538999
-83508536
-83405672
-81402196
-81556359
-83080571
-84385296
-83560530
-82188790
-83192537
-84449349
-83612952
-83239568
-83447039
-83294911
-83294055
-83388364
-83524551
-83420485
-83393932
-83627902
-83673037
-83567000
-87981884
-87775372
-86579643
-84937517
-86359995
-84814290
-84636598
-84099149
-84561336
-84097120
-83996883
-84007381
-84806265
1.0207247e+08
-74832337
-84820919
1.0667093e+08
-74339391
-83644630
-83927747
-83692214
-75213105
-84121997
-79354930
2.1471113e+08
-74264611
-85381642
-79403363
-83541949
-83438751
-83621874
-83597999
-83494979
-81500183
-81517365
-83221138
-84333639
-83613503
-82184609
-83245178
-84200618
-83586454
-83419683
-83535445
-83445117
-83360546
-83472501
-83535629
-83481742
-83480191
-83670485
-83636577
-83567710
-87676921
-87991759
-86313654
-84798854
-86497812
-84821826
-84552186
-84097019
-84569181
-84113823
-84008832
-84026666
-84675704
1.1457033e+08
-74194538
-84907503
1.0781214e+08
-74217160
-83700400
-83948321
-83713403
-74075862
-85350637
-79367712
2.0730192e+08
-74074562
-85285923
-79395529
-83605410
-83502588
-83641243
-83619433
-83502916
-81436952
-81484929
-83254572
-84049377
-83572921
-82151829
-83228917
-84135897
-83552618
-83480120
-83529597
-83484670
-83349879
-83473670
-83509811
-83473075
-83484155
-83620523
-83600444
-83539383
-88395828
-89058302
-86679514
-84858352
-87075281
-84995000
-84592201
-84125508
-84684290
-84166430
-84037611
-84072224
-85267486
1.1449422e+08
-74108052
-85631438
1.00779e+08
-74514701
-83715210
-83981545
-83709089
-74066178
-85466094
-79322072
1.8254972e+08
-74865785
-87919770
-79264028
-83622087
-83495723
-83623425
-83613255
-83446429
-81434837
-81331321
-83214612
-84094667
-83546361
-82018458
-83107022
-84143804
-83488161
-83462386
-83500274
-83460794
-83235255
-83394800
-83429790
-83384129
-83417192
-83595445
-83544749
-83464645
-89006478
-88560034
-87102207
-85032326
-86910933
-85068002
-84711071
-84179776
-84741334
-84214291
-84083598
-84117834
-85518130
1.0395839e+08
-74565429
-84973049
92520310
-74709935
-83704124
-84014701
-83691819
-75072480
-85109192
-79161453
1.5587073e+08
-75594279
-83591771
-78868759
-83606939
-83420242
-83583415
-83599534
-83318500
-81277128
-81042839
-83060079
-84085352
-83448282
-81686993
-82774727
-84046587
-83190922
-83359369
-83385366
-83341303
-82931383
-83204841
-83126877
-83134089
-83260070
-83506306
-83254285
-83159475
-88472140
-88279305
-86841307
-85052122
-86528637
-84885185
-84732191
-84223659
-84627863
-84312992
-84132532
-84279847
-84892003
92862308
-74611164
-84554679
76053115
-74244169
-83695417
-84191779
-83838387
-75593629
-80464215
-78608155
1.3897886e+08
-75193949
-79201607
-77429830
-83613331
-83281237
-83691133
-83858103
-83233632
-80781429
-79567639
-82615166
-83783598
-83019943
-80287327
-81758440
-82679392
-82056699
-83135627
-82971335
-83029644
-82106941
-82906856
-82145626
-82579162
-83087126
-83082047
-82111521
-82122909
-87877427
-86160427
-86242425
-84766166
-84702638
-84102286
-84566279
-84406193
-84338464
-85326246
-84412016
-85724108
-84272405
73361868
-74224796
-82596257
56061943
-73581761
-84004622
-85846911
-85808786
-75121925
-66522218
-76674756
1.3520216e+08
-74238882
-78289328
-73587495
-84118136
-83279646
-85544489
-86939656
-84158252
-78802620
-74725448
-81301455
-81813024
-81497331
-75762893
-78984418
-77459485
-78486548
-82843068
-81686163
-82375002
-80112789
-82962842
-79308234
-81578988
-83625787
-81542665
-78455199
-79014030
-85069403
-75071208
-83581185
-83690692
-75549305
-80992928
-84249267
-86165558
-83871643
-93067504
-86905402
-96625320
-81801274
52137603
-73158320
-73150368
29818731
-70440942
-87337028
-98139358
-99548050
-73701251
-63528459
-71945360
1.3372029e+08
-71167028
-86607487
-64425502
-89264034
-84992569
-98560014
-1.0685653e+08
-91951679
-72504320
-60534780
-77724030
-74764760
-76753057
-62058954
-70778797
-60976251
-66991567
-83220145
-77967750
-81225513
-74622314
-85822026
-70404894
-79620952
-89204671
-76662086
-66561776
-69064965
-69878505
-33197528
-70666221
-79013634
-34094849
-61819890
-83515701
-98219806
-78045024
-1.3689659e+08
-1.0399261e+08
-1.6230053e+08
-68384406
13640061
-69186750
-35858623
-1.7223594e+08
-56119785
-1.0920769e+08
-1.7756676e+08
-2.0201505e+08
-70323708
-1.0409138e+08
-59898176
-3.5301624e+08
-62018799
-1.1657293e+08
-30246234
-1.2136429e+08
-97316474
-1.9364768e+08
-2.6911978e+08
-1.4175669e+08
-54397373
-19683545
-66395395
-53131364
-61019865
-17102901
-36203380
-6310142
-22759063
-87863662
-65649085
-78689272
-50226104
-1.0331771e+08
-34027633
-71547060
-1.230175e+08
-60384152
-21317534
-29532997
-2067006.1
2.0690294e+08
24130145
-6105353.1
-14399362
37393137
-76591416
-62316053
-84298138
-44126797
-2.0714025e+08
-5.4200943e+08
1714708.2
-25704582
-79244470
-45097632
34672815
-59772098
-49977182
-21666436
-49964726
1.8235703e+08
45944038
1.6426932e+08
64379234
-1.84327e+08
-79617817
-2.1884541e+08
-26060106
-4.5084497e+08
-20315592
-6.8436018e+08
-5.2332122e+08
-2.8803537e+08
-2.6658609e+08
-3.3613122e+08
-3.2931249e+08
-4.3257127e+08
-3.9568953e+08
-2.0071855e+08
-2.2965102e+08
-3.0951493e+08
-7.5066543e+08
-1.6294845e+08
-2.5534085e+08
-5.3067972e+08
-2.0557681e+08
-44543186
-1.3660307e+08
-3113379.8
-6.0154176e+08
56350499
-2.4133867e+08
8277751.7
2.2453505e+08
-2.708926e+08
6055699.9
1.6905441e+08
1.4258086e+08
3.1585557e+08
6.5902677e+08
3.9337735e+08
2.6894454e+08
2.3477937e+08
4.0057902e+08
1.5642471e+08
92544243
24010350
3.2301392e+08
-7.2057715e+08
-3.2536799e+08
3.5819184e+09
4.3878811e+09
4.9263787e+08
3.7352181e+08
4.9787785e+08
3.9160185e+08
4.8658929e+08
5.6083177e+08
-5.5378297e+09
-1.9111963e+09
-1.6993078e+09
-1.5378218e+09
-3.0881516e+09
-2.9878911e+09
-2.7505168e+09
3.7160752e+09
8.2314622e+09
7.4097434e+08
4.593121e+08
2.2427375e+09
1.0207001e+09
3.7823177e+08
6.6271142e+08
1.4913928e+09
-3.6798936e+09
-2.6221461e+09
-1.3770881e+09
-2.4442289e+09
-2.2323302e+09
-1.972628e+09
-4.2217385e+09
3.6704652e+08
7.2992829e+08
4.7310887e+08
3.0200574e+08
3.5604423e+08
4.6672559e+08
3.1395615e+08
4.1876496e+08
4.9338149e+08
3882737.2
4.9705315e+08
9.6439524e+08
7.9057473e+08
1.1181191e+09
7.5202009e+08
7.3267307e+08
9.1513135e+08
9.2377234e+08
5.5852009e+08
7.1528967e+08
2.8902851e+08
1.2854987e+09
3.2000651e+10
8.3606028e+08
1.2489256e+09
7.9973187e+08
1.2317991e+09
1.0913993e+09
4.5790424e+09
8.8202642e+08
6.7042892e+08
7.5950546e+08
1.0840793e+09
1.0919299e+09
8.9776968e+08
9.9015537e+08
4.8392114e+08
8.5019113e+08
1.0841356e+10
7.9008775e+08
1.2920245e+09
1.0394275e+09
2.0587662e+09
-6.5337851e+08
6.6421821e+08
-1.6938079e+09
2.536352e+09
1.2628129e+09
1.3621963e+09
2.4588336e+09
9.1055413e+09
1.3979065e+10
1.0629623e+09
1.2225656e+08
7.9364073e+10
7.4309356e+08
7.2470725e+08
6.8519425e+08
8.2093178e+08
9.6634575e+08
8.1929133e+08
8.8901245e+08
6.4991114e+09
6.4017878e+08
5.5948938e+08
1.0207089e+09
1.845527e+09
8.5473782e+08
1.0368235e+09
3.4027379e+09
3.4222373e+10
1.0341416e+10
6.6241716e+09
3.5804467e+09
7.8296733e+08
9.7864693e+08
1.0153677e+09
1.1896994e+09
1.3798232e+09
1.1736364e+09
1.3628316e+09
1.1162026e+09
1.0043129e+09
1.2572981e+09
1.0555408e+09
1.1756151e+09
4.2540353e+09
8.7053218e+08
1.3401782e+09
-1.9084649e+10
7.4595876e+08
2.0901521e+09
1.0837028e+09
1.0759329e+09
7.8904508e+08
6.2897823e+08
6.4656428e+08
5.9621005e+08
1.1073206e+09
1.0487736e+09
9.8439464e+08
1.1983358e+09
1.6619213e+09
8.8407421e+08
1.2705707e+09
1.4218824e+09
9.4996757e+08
1.6586382e+09
9.3913911e+08
9.3647118e+08
7.7665369e+08
9.240359e+08
1.0237002e+09
9.625883e+08
1.4461455e+09
1.6517772e+09
1.4281561e+09
1.6189906e+09
9.6348966e+08
8.730097e+08
1.0025785e+09
8.9742116e+08
1.4058691e+09
-1.0041498e+10
7.5852803e+08
1.6139517e+09
-1.1524314e+10
1.1529327e+09
1.0466386e+09
9.0710652e+08
9.4503864e+08
6.6180103e+08
6.4044748e+08
1.171367e+09
7.5693062e+08
9.6457364e+08
9.5308419e+08
9.2644782e+08
1.7211301e+09
1.3040594e+09
9.5468291e+08
1.6696437e+09
1.3647997e+09
9.8314667e+08
1.5270345e+09
9.1518734e+08
1.0269243e+09
7.7713147e+08
8.9389432e+08
1.0229576e+09
9.1882878e+08
1.712559e+09
1.8621338e+09
1.6787002e+09
1.8230502e+09
8.4831805e+08
7.8582735e+08
8.7170215e+08
8.0698607e+08
1.6750171e+09
-1.1664664e+10
1.1982497e+09
1.8218393e+09
-1.2439889e+10
1.389988e+09
9.3550919e+08
8.1675341e+08
8.7660005e+08
1.226108e+09
7.5350505e+08
1.4333904e+09
7.2890673e+08
9.157879e+08
8.9805033e+08
8.7716595e+08
1.1668828e+09
1.0292475e+09
9.8615761e+08
1.4958355e+09
1.2391756e+09
9.7993386e+08
1.379578e+09
8.8514838e+08
1.0189155e+09
7.6072179e+08
8.4574483e+08
9.9148162e+08
8.6865357e+08
1.9065253e+09
2.0410533e+09
1.8666417e+09
1.9923167e+09
7.6481075e+08
6.996791e+08
7.8584272e+08
7.1946766e+08
1.8640987e+09
-1.2430902e+10
1.4039637e+09
1.9888615e+09
-1.1949063e+10
1.4519756e+09
8.6795186e+08
7.2955569e+08
7.9669198e+08
1.4455503e+09
7.251966e+08
1.4827319e+09
8.2161557e+08
8.6052711e+08
8.2375902e+08
7.9300919e+08
1.0230541e+09
1.1229182e+09
9.7988599e+08
1.3791258e+09
1.3067946e+09
9.5567727e+08
1.5034069e+09
8.2797054e+08
9.8339116e+08
7.1555574e+08
7.5832553e+08
9.3904131e+08
7.8131662e+08
2.093714e+09
2.3186534e+09
2.0423875e+09
2.2428797e+09
6.7397869e+08
5.9164237e+08
6.9380473e+08
6.0929971e+08
2.0364029e+09
-1.1878781e+10
1.4495148e+09
2.2365276e+09
-1.1691539e+10
1.2638868e+09
7.8419177e+08
6.1782807e+08
6.7646436e+08
1.4775295e+09
8.7121092e+08
1.1951194e+09
9.2385496e+08
7.6280099e+08
6.9890696e+08
6.3719161e+08
1.1947161e+09
1.7467766e+09
9.5423053e+08
1.5503579e+09
1.6745728e+09
9.2744819e+08
2.1493525e+09
7.2746229e+08
9.1786591e+08
6.4193634e+08
6.0029343e+08
7.9726815e+08
6.2138621e+08
2.4405073e+09
3.1249211e+09
2.3533317e+09
2.9479646e+09
5.6056631e+08
4.7701778e+08
5.7809593e+08
4.8911875e+08
2.3460148e+09
-1.1602124e+10
1.2252081e+09
2.9800763e+09
-9.6989832e+09
1.2896261e+09
6.570812e+08
4.8109649e+08
4.7374695e+08
1.1304896e+09
1.0575847e+09
1.0784983e+09
9.7610187e+08
5.800952e+08
4.7715711e+08
3.4047471e+08
2.1609439e+09
2.6869541e+09
9.2583216e+08
2.2749296e+09
2.1537208e+09
8.8732222e+08
2.93113e+09
5.42829e+08
7.3922537e+08
5.3135371e+08
3.0092687e+08
4.4969015e+08
3.1539609e+08
3.5406204e+09
5.9757017e+09
3.3154621e+09
5.3996108e+09
4.4888152e+08
3.9789671e+08
4.5453293e+08
3.2795917e+08
3.3675225e+09
-9.0297417e+09
1.3587812e+09
5.6589051e+09
-7.2937672e+09
2.7190467e+09
4.3973411e+08
1.5564593e+08
-1.1655891e+08
1.1299719e+09
1.0627212e+09
2.2077742e+09
1.2394452e+09
2.3264629e+08
-1.2405885e+08
-1.6195485e+08
2.7312999e+09
2.7190395e+09
8.7465594e+08
2.9919395e+09
2.157572e+09
3.8176181e+08
3.3894185e+09
1.9443952e+08
3.2074125e+08
60984845
-1.972846e+08
-98918972
-1.7238965e+08
7.4032845e+09
1.2915535e+10
6.6632535e+09
1.2349817e+10
-1.2588424e+10
4.1618665e+08
-1.3788968e+10
-6.1979473e+09
2.244872e+08
-4.293289e+09
6.947958e+09
-1.166342e+10
3.1605914e+09
1.031701e+10
2.7048075e+11
-6.168639e+09
1.5035692e+09
2.2892929e+09
3.2917111e+08
8.3613905e+09
-8.2239178e+09
-2.0432863e+09
-2.3226884e+09
-2.7789188e+08
-3.85032e+09
-2.4596264e+09
2.6500717e+09
1.1623624e+09
-7.0834559e+09
-1.9426075e+09
-2.9585747e+08
-2.2383973e+09
-8.3483186e+08
2.6547157e+09
3.1214158e+09
2.7402242e+08
3.5179422e+09
1.5356819e+09
-3.8878329e+08
7.3829172e+09
-3.0937587e+08
-1.6213349e+08
-4.8212306e+08
-6.8748111e+08
-7.0487991e+08
1.48726e+10
1.5835677e+10
-2.2300766e+10
-2.7082627e+10
-1.5510456e+10
-8.5892354e+09
-6.8810486e+09
1.3756493e+10
7.4707796e+10
1.4853557e+10
1.1724653e+10
-3.7460387e+10
-9.0366253e+09
-3.8102007e+09
-3.3940866e+09
-1.5509573e+10
-6.3666788e+09
-4.9166574e+09
-2.8754241e+09
-4.5536203e+10
7.1955221e+09
-1.3596039e+10
-1.2193348e+11
4.0481193e+10
-1.0630435e+09
5.4582468e+10
8.9195551e+09
1.7737127e+10
2.9202126e+10
-6.8879348e+08
9.2222178e+09
-2.9622683e+09
-3.1550083e+10
-8.6594287e+09
-8.5786646e+09
-5.0745372e+09
-4.469403e+09
-4.1512046e+09
3.7789423e+08
1.2013345e+08
2.0111224e+08
3.3789514e+08
3.9056934e+08
2.8202601e+08
2.0045385e+08
4.0482263e+08
2.3792094e+08
4.0784028e+08
3.7990682e+08
1.7240767e+08
92634104
1.1717259e+08
1.2446334e+08
1.2315642e+08
1.6079294e+08
1.4046007e+08
4.64343e+08
6.8914417e+08
5.2127705e+08
6.6611566e+08
4.5088355e+08
6.4068976e+08
4.2437493e+08
6.6037532e+08
4.6039761e+08
5.229975e+08
6.4805379e+08
6.6456009e+08
5.2508724e+08
4.4828329e+08
6.6797737e+08
31710630
-58684877
-44072041
-2.7600544e+08
-2.0194034e+08
-4.1809554e+08
-1.2242136e+08
-2.2863926e+08
-1.4064049e+08
2.4950758e+08
6.911264e+08
4.1823675e+08
5.0080366e+08
1.9897132e+08
3.6264853e+08
1.1846779e+08
-2.6758364e+08
1.8451541e+08
2.3079047e+08
-59614813
14103105
3.050422e+08
4.5133794e+08
3.4193967e+08
3.1226445e+08
4.2631016e+08
3.4424263e+08
4.5293828e+08
4.2068886e+08
5.2276492e+08
7.1061547e+08
4.7783599e+08
9.4091503e+08
4.6081547e+08
6.4913805e+08
5.6333386e+08
5.3096212e+08
6.4940276e+08
5.641e+08
5.5844534e+08
5.4119657e+08
5.846657e+08
5.1851419e+08
5.2951377e+08
6.4926494e+08
6.0871355e+08
5.4416811e+08
5.1219557e+08
5.9419806e+08
5.0615939e+08
6.6253051e+08
3.925066e+08
-94836542
5.8866302e+08
4.9811836e+08
4.348041e+08