/*--------------------------------*- C++ -*----------------------------------*\
  =========                 |
  \\      /  F ield         | OpenFOAM: The Open Source CFD Toolbox
   \\    /   O peration     | Website:  https://openfoam.org
    \\  /    A nd           | Version:  12
     \\/     M anipulation  |
\*---------------------------------------------------------------------------*/
FoamFile
{
    format      ascii;
    class       surfaceScalarField;
    location    "5";
    object      phi;
}
// * * * * * * * * * * * * * * * * * * * * * * * * * * * * * * * * * * * * * //

dimensions      [0 3 -1 0 0 0 0];

internalField   nonuniform List<scalar> 
279700
(
131.26658
167.87112
45.990684
-316.01141
-17.806319
9.7097944
16.223171
2.5221863
-10.763159
-9.9280634
36.468523
-20.964881
0.037258548
-5.7098317
-9.3963964
5.4736971
-4.0409983
5.9742371
1.9743293
-2.1130742
3.4165658
0.062167162
1.7580635
-3.1223383
1.9397382
-4.4108808
-0.21488003
2.6969714
-1.955472
2.672408
-2.5408454
1.8840354
-0.070968082
-2.0678673
6.209202
-6.8396564
3.2389344
-2.4125186
1.8311203
-4.1541063
-1.2800841
-2.9212316
2.9416484
1.0516778
4.3467744
3.1934149
1.5172909
1.7851903
-0.97213335
-0.99861887
-4.5385254
-1.5241343
-0.67941066
-0.62464527
-0.17868245
1.2803887
1.7137077
-5.155138
-0.77210773
1.280379
0.7548268
4.882465
-0.99463646
1.3326378
-1.3984599
-0.5649267
2.6448872
0.52249299
-2.5403867
-0.83177405
-1.1399656
-2.8420475
2.2547963
1.0405507
1.5203445
6.5493994
4.5546882
-9.5589807
9.9017862
-2.9529155
-8.4942612
-4.2081248
-0.73836212
-9.8714357
9.3157643
0.48671222
5.0156271
0.81645249
-10.770847
7.276134
11.400433
0.035901818
-8.7595926
-4.1068682
0.37126182
-12.96649
11.380047
0.3483229
4.9728168
-7.6078674
-0.1582519
-6.6526521
4.1694017
0.017481327
10.232645
7.6604834
-12.790542
-2.7214889
10.866059
3.6082588
-6.6232747
-3.7526155
-10.35713
0.065364224
9.6985117
-0.3874744
4.7338105
-2.0819463
0.75239565
-5.2904767
3.886528
2.7341418
12.108164
5.0258885
-20.814024
24.454538
-5.8116987
-14.962331
-9.1712185
-0.89020479
-23.062056
21.123342
0.47487564
11.525958
-8.8871192
-12.229252
4.3752122
11.719567
5.0219982
-24.364096
16.164103
0.66071421
26.914296
0.47062921
-19.845234
1.5052471
-10.070043
-29.272753
25.642632
11.601459
0.59388373
-21.964677
-0.3231114
-15.460512
11.746588
-0.13737183
26.139389
12.21729
-21.310039
-6.8618501
23.659481
7.1998568
-14.903987
-9.7842779
-24.156788
0.05300839
21.939301
-0.1745404
12.124475
-10.205231
4.8710047
-11.979834
13.000892
4.3139295
17.135361
-49.980157
26.94394
53.165707
-15.625137
-31.638997
-21.634084
1.7520144
-48.267551
43.860864
-1.9172593
26.206946
-34.117157
-3.5405703
-28.895907
17.287342
1.8445133
47.422384
8.4446459
-10.461723
74.162441
-2.8743813
-30.811027
-38.459653
-60.529446
33.980194
3.8410401
1.4183747
-40.410567
61.700643
-22.60067
4.4731542
-61.777434
54.011291
-0.10595215
26.000299
-43.299072
-0.53835384
-32.827805
25.55406
-0.98638709
52.098241
23.618685
-49.455505
-11.72798
52.142657
12.657614
-27.234837
-20.641912
-47.973849
-0.93537718
45.067938
-0.44642473
24.92964
-43.048781
6.7803671
-25.173206
18.051334
-10.327639
53.718865
33.298087
-109.0527
34.845721
109.0987
-31.666138
-36.523523
3.4562284
-45.727035
-86.186476
78.462282
55.987459
-5.9918166
-85.780857
-16.898877
-41.0616
33.082963
8.0759891
102.58285
116.76872
5.7962857
136.57399
6.9852994
-159.20857
-106.91565
-147.78459
7.5113438
62.133553
3.2267847
-68.953125
143.86616
-44.784618
3.0334531
-115.21546
99.72494
0.70371282
56.538198
-92.551737
-0.9951102
-55.735529
40.007163
-0.77184707
110.04674
38.720054
-112.62819
-32.751799
107.28048
40.110608
-40.731203
-45.437449
-90.405041
-4.4911476
81.582169
3.7831976
54.968224
-99.496296
8.7938598
-50.984129
39.268453
-18.970677
121.38916
82.55279
-230.76784
25.008637
208.81118
-76.093051
-9.5114224
15.20052
-106.17106
-139.75196
117.4286
128.79933
-15.504999
-174.11066
-21.747187
-60.634129
47.644959
8.2124096
200.63512
346.95025
45.409832
465.7671
48.933683
-434.95298
-472.10777
-337.5332
18.40387
74.72808
14.734769
-62.904509
292.57121
-102.86365
6.4668589
-180.76155
156.40067
-0.63458645
121.39257
-172.79019
0.6832739
-76.365703
53.006687
-2.1994716
197.66541
31.306229
-237.28717
-72.687754
207.2692
89.127913
-17.728275
-101.19193
-145.86824
-13.689113
123.79816
13.949937
123.00133
-157.6417
6.6427569
-69.09035
44.976197
-7.8478803
182.96073
115.72391
-341.53179
-109.54056
266.42464
-106.17639
175.10059
16.577139
-209.68875
-144.79131
116.12862
241.32729
-19.55259
-229.33573
12.80167
-59.517248
45.722987
-8.9963889
239.3253
797.79874
138.99575
1233.9481
130.26136
-887.32608
-1413.6778
-555.32339
29.28369
-66.345011
15.083456
157.33101
419.97031
-208.40399
6.5514249
-187.61205
145.94141
0.52453498
242.99876
-272.16917
4.3334633
-64.687302
44.411697
-4.3714943
292.48292
-85.93636
-340.2204
-86.321731
285.85042
82.833544
143.79462
-209.96033
-157.6
-19.071744
125.66181
20.307146
240.66326
-253.57081
4.9006109
-60.581581
43.446834
-0.58475796
266.38979
-41.082462
-57.457039
-369.19471
28.524928
39.903777
399.30555
-3.3454429
-307.68304
-2.607091
2.725696
312.91294
-2.0028924
-271.11689
3.4403257
-2.4186096
2.0732796
-3.8014137
271.82461
280.8715
-345.52777
-460.72584
-367.62105
265.34846
627.6547
27.500956
-5.9242035
-414.73068
-37.671946
439.50911
-8.6832583
29.127615
-354.33619
-13.39353
14.455997
335.09196
-10.945751
-323.14525
3.1887241
-10.528595
9.9377964
-1.8047463
322.35247
-322.11578
-122.91474
45.523671
79.171584
-31.796532
352.13172
-306.60231
-21.22769
6.0713136
14.511246
-2.9849707
310.23279
-286.10591
0.61682668
-9.4852322
9.9883158
-3.2985854
288.2853
-70.012873
2.3852391
-8.4891924
93.333974
-17.215391
-117.43939
267.24932
-235.69897
-216.98602
113.78176
189.09343
-20.751537
-261.31454
122.86442
-95.445598
235.22083
19.4264
-246.69365
7.2726322
41.621266
-26.614211
-6.6948889
231.10906
-506.95742
-188.27726
-2079.0075
-272.66213
103.40991
2943.4946
590.31122
-31.181545
-242.70947
-52.300844
152.17806
-416.29731
-6.9181671
-289.02736
181.02064
-122.79026
254.71594
-17.000543
-277.5668
6.1373324
43.88651
-25.463394
-3.7960543
256.80333
-223.17002
224.14664
118.9909
-189.10816
-107.99337
177.13386
-257.33982
106.2092
29.893581
-85.132772
-26.288328
232.65874
-264.32894
1.6096436
37.503784
-24.066651
0.70444681
248.5783
-100.59129
-15.908888
43.523056
91.950393
-18.973117
-110.44111
266.6246
-52.725038
-222.2219
96.250399
22.513578
-12.125264
-154.37959
134.57181
-109.40598
131.07562
10.263986
-178.97367
12.350197
53.724419
-36.326547
-11.36779
160.59398
414.21646
312.55288
-722.65854
232.65592
-1510.1346
1273.368
350.62702
4.5803408
-5.1390419
-31.88281
-20.924988
-297.26027
-5.6448945
-163.0429
179.50849
-132.02398
137.52537
-16.321661
-200.5607
6.7136194
61.938524
-44.576081
-4.5167782
181.00222
-49.392158
241.62541
106.79193
-207.24332
-114.20468
22.423006
-154.86381
121.67183
25.07234
-101.56102
-22.224737
131.90604
-196.60239
-0.064305429
52.994462
-37.507095
3.6138941
177.56582
-62.608955
-25.302977
54.462862
53.428416
-19.98012
-21.685538
115.10398
-4.3944428
-116.18956
17.548898
9.6172975
3.0841737
-80.941079
93.504404
-81.223512
70.274891
-4.6979259
-114.51613
14.242646
44.656983
-31.680268
-13.689828
100.98815
-111.31692
2026.3834
3836.3758
2044.3704
76.961379
-7872.774
91.839794
46.315627
-7.3962279
-13.972121
7.1530579
-123.93994
3.5697237
-84.529243
112.48582
-89.315855
73.120569
-15.330235
-132.17634
7.6863491
49.40426
-37.355104
-5.0821435
117.52428
21.093213
193.63766
34.309855
-134.44799
-84.554449
-30.037903
-82.566649
80.677636
13.346174
-71.420117
-11.329285
71.293069
-129.69632
-2.2344137
44.009609
-32.477581
5.1075527
115.29233
-32.026277
-22.806885
40.208576
26.933412
-12.30984
77.028796
41.972434
-16.359106
-64.15455
-53.021628
14.534432
18.91826
-48.169638
58.234866
-51.871352
43.325941
-20.436845
-70.921898
15.092196
30.078464
-21.623777
-15.392175
62.769103
-287.17096
2222.7823
4500.969
2193.5855
163.37812
-8793.5439
-51.177079
87.560608
-8.8064756
-13.948384
11.118376
-24.746714
14.928214
-51.357282
49.366172
-43.410057
47.139961
-16.666037
-84.741631
9.2626009
28.824072
-22.567421
-6.2224342
75.446075
9.0354113
36.151204
-31.085823
-36.368835
27.533346
-5.2646359
-49.915172
37.01876
-0.066069676
-35.779427
3.5847276
45.158189
-83.079032
-2.4742615
26.364763
-20.04716
5.2223449
74.014259
-16.799898
-19.889392
26.595517
14.520528
-4.4274192
105.6283
45.852924
-22.422278
-63.755309
-79.409117
14.106157
32.13526
-32.194508
42.384676
-36.452347
29.76549
-35.63716
-45.07909
17.180667
20.316752
-14.407945
-18.155059
40.146372
-278.10873
2050.9971
4325.0329
2038.99
43.949577
-8180.8608
-171.66334
129.8786
-27.588739
-9.0543369
23.735271
54.69304
25.289836
-39.713778
8.2377197
-12.613022
37.607331
-18.807152
-55.692122
11.672944
13.203468
-10.933482
-8.151819
49.902566
-9.6615297
2.7780207
-79.676508
-6.3483564
86.132201
6.7768422
-36.841195
13.102958
-14.029788
-13.599417
17.781059
33.587936
-54.797451
-1.9605898
12.378849
-9.6988239
4.964061
49.115193
-10.436466
-19.887169
21.738474
9.1145182
-0.528991
87.01005
204.05721
-46.324643
-133.20834
-104.89878
-6.6345708
38.899061
-23.074403
42.746033
-32.929376
20.580476
-46.220053
-28.832495
19.464542
15.951124
-10.875656
-21.320538
25.615057
-199.58174
1955.7868
4055.8686
1972.7686
-8.434508
-7776.4077
-315.36563
148.68032
-19.73724
25.441057
18.519317
142.46399
31.712654
-31.7334
-20.15801
6.8129929
29.015007
-15.64789
-37.230017
14.74837
3.7145753
-3.8888644
-10.78145
33.439266
-8.4850882
0.24248931
-61.03088
-15.812134
77.196717
7.8903661
-25.78096
7.908175
-22.152878
-4.8471548
23.494437
21.381717
-37.010481
-1.0435634
3.9040871
-2.9060179
3.8694413
33.189397
-8.2076554
-19.878827
17.548358
7.7711382
2.7674985
83.575066
102.30688
-16.363518
-133.29245
-72.267438
36.043692
38.889404
-14.565489
46.153629
-33.259167
12.895505
-50.111754
-17.840142
21.356658
14.512791
-9.5539107
-24.062241
15.589194
-132.88069
1974.2461
3965.4353
2027.0193
-45.509999
-7788.3099
-444.04841
171.44357
-24.077753
80.797615
1.307613
214.58069
32.28629
-23.216591
-40.702624
18.726632
20.172828
-7.2640519
-24.293144
17.56169
-1.4595978
0.040886769
-13.005019
21.157849
-2.5410087
12.241889
-31.211117
-33.440172
50.223749
4.728306
-15.304754
17.610611
-20.955831
-8.3242484
18.124564
8.8561387
-23.859326
-0.052800758
-0.21241466
1.0148252
2.6520456
20.462045
-6.091096
-15.011526
13.600384
5.3288151
2.1738297
60.769457
145.69885
-8.4446282
-187.79251
-37.481841
27.254153
38.092557
-5.1379924
55.913637
-37.367597
3.1116133
-54.609832
-9.2865197
23.293433
14.973271
-9.7340669
-26.688182
7.4457747
-54.642266
2110.8931
4052.6258
2184.218
-56.023629
-8237.071
-447.15248
120.7382
11.316776
112.78944
-22.716492
225.02654
33.043715
-9.6270695
-49.75166
25.013325
5.582907
-4.2575266
-12.442614
20.126293
-4.4675645
2.0649206
-15.054935
9.7775793
4.9083114
36.4624
-24.203157
-57.20017
36.591771
3.4432783
-5.6700023
35.310298
-21.444432
-17.15543
13.082612
-4.1126627
-11.376383
0.92414491
-1.1733137
2.4828148
1.0516025
8.0978421
-2.9631569
-11.413777
11.745924
2.0041998
0.62810612
37.32772
162.21847
-8.3794009
-180.13335
-27.275885
16.246341
40.735075
0.67421881
53.194309
-36.440718
-0.92250117
-57.237606
-2.8487429
25.116261
15.01907
-9.9106347
-29.336478
1.9645032
2.4359998
2261.9538
4276.725
2367.168
131.43669
-9039.7194
-460.11157
120.18764
3.2171137
102.58245
4.8000116
229.32586
34.986507
1.0804823
-64.86878
36.903571
-2.0809339
-6.0168473
-3.5471937
23.62897
-8.7601035
4.4670812
-17.978144
2.1951038
5.6695425
32.304504
13.431493
-53.494232
3.6141211
-1.5227155
0.38643096
23.179472
-26.361978
-10.893505
18.294563
-4.5931969
-1.5436001
0.32186092
-5.5367817
4.847422
2.4505081
-0.53053202
-0.0003175717
-8.9366355
9.8016138
-0.61650705
-0.24487685
3.9644736
288.99948
-45.273302
-170.79055
-74.790581
-2.1078179
42.061549
-0.49316314
48.867976
-34.204592
0.65025002
-56.879786
-0.3836104
26.579505
15.099737
-9.9072801
-31.629065
0.24314519
38.634335
2279.3515
4263.6048
2373.7188
-27.506015
-8927.8035
-462.76287
118.20633
-0.047295326
110.86854
6.7669025
226.96924
36.858438
4.9337627
-63.869654
37.68165
-4.9146114
-10.686929
-0.34131273
25.964172
-10.860326
6.0231804
-20.048058
-0.73174705
4.94991
26.935321
12.904278
-45.170968
6.3809206
-5.9974095
0.9787059
13.979078
-23.026632
-0.28001298
15.352908
-6.9943906
5.0738505
3.6175704
-7.9987378
7.1057383
-0.83135104
-6.9624627
2.1146426
-8.7523331
9.1656196
-3.062663
0.53775339
27.284496
307.92857
35.623303
-206.27224
-92.625857
-71.937783
38.534527
4.4944109
46.498809
-30.56948
-6.4904748
-52.467058
-0.39558266
26.385525
12.858053
-9.5555414
-30.830148
1.539138
-7.1539658
2093.3143
4024.2873
2160.7971
-129.09326
-8142.1515
-425.94008
122.39645
-9.8636688
113.77848
-2.4095171
202.03859
40.642395
10.161213
-56.154098
34.213645
-12.020954
-16.840272
2.973706
26.458737
-11.769954
7.0781682
-21.194709
-3.541688
5.733856
11.637431
-19.958514
-19.59102
25.576194
-3.3964458
10.079842
-0.49659177
-12.796637
7.11285
12.084307
-15.979099
12.12634
7.218742
-10.728562
9.5377416
-4.1540957
-13.997075
6.3055795
-6.3778391
8.7800359
-7.9792568
-0.72934757
103.69987
91.246669
15.233418
-114.41326
-81.007835
-14.757293
43.243825
12.308422
28.863551
-15.682547
-13.957093
-54.775411
-8.6228712
23.118812
3.6310075
-0.89168446
-26.484766
9.2520385
-78.446898
1779.2917
3652.4527
1798.6266
-179.35009
-6972.574
-373.56947
164.22007
12.308668
66.334285
-51.87828
182.58452
47.69744
23.52837
-58.660177
40.403157
-27.422142
-25.545807
-0.040910744
25.636358
-20.187743
13.730712
-23.532542
4.3961522
15.494007
20.135054
-34.197442
-11.910121
32.450774
-21.971418
27.490449
-14.70969
-4.0859501
18.420454
6.4424951
-33.555475
17.659797
13.891304
-19.507269
16.386256
-10.441966
-17.986557
13.363395
-3.4075154
4.0992678
-15.444347
1.3885874
106.42638
19.309907
27.481571
-32.44301
-81.748928
-39.023164
40.606316
15.601859
-17.506081
25.338571
-13.952452
-50.087112
-29.522238
18.030916
-19.714449
14.098142
-22.215946
39.323441
112.64812
2021.8579
4210.4546
2040.8401
-221.26869
-8164.532
-294.23376
166.4886
83.156795
-18.292076
-90.289033
153.1698
55.198104
36.362901
-84.923237
68.595012
-36.652371
-38.580644
-23.815997
30.658964
-37.563388
28.061254
-31.965477
34.626581
50.967075
-12.431573
-50.252096
25.360615
47.538711
-61.182159
49.215575
-43.608156
10.599021
46.699386
-6.7220003
-56.181515
12.52584
28.946335
-41.290441
32.677112
-25.811322
-7.0455616
22.45089
11.547917
-8.1106355
-25.696024
-0.19253584
72.461855
29.765445
64.790908
1.8369657
-63.265593
-105.58843
30.894804
-1.1820629
-90.559194
97.650196
5.7095967
-42.512017
-76.60724
-2.3685384
-64.765862
43.823868
-2.670529
102.59041
92.031746
2178.7005
4638.7074
2192.0341
-329.61521
-8771.8584
-185.16756
156.61273
107.13613
-69.993444
-120.21016
111.62465
73.500759
28.803408
-154.25512
140.8015
-25.115133
-63.733458
-98.366494
37.863923
-96.878986
75.76495
-50.837874
132.45653
102.94824
-41.492181
-11.232508
60.49681
14.376232
-125.09505
81.055261
-100.93565
48.017527
106.7318
-41.943356
-92.921546
-25.258277
63.25825
-85.972203
68.307108
-60.355522
40.024342
39.570023
50.430766
-33.007578
-47.09838
-9.8967987
8.6889183
-35.158266
201.85308
74.79077
16.829704
-267.00409
-0.82156581
0.42803888
-239.46079
268.53485
-11.570195
-17.108396
-246.51886
-60.479962
-224.25047
155.67425
52.462521
323.11183
83.911757
2197.5655
4474.1771
2172.2459
-22.35772
-8905.5423
-32.653083
101.186
165.66271
-85.494999
-203.80679
55.110092
112.55757
30.801345
-304.22083
313.68959
-47.902329
-104.91944
-298.44251
69.770711
-276.40003
223.28164
-106.65644
388.45155
236.72372
-2.8080734
109.53533
69.768234
-92.537719
-320.67743
146.07362
-205.73216
117.65691
233.77893
-112.46344
-179.31075
-114.76386
160.80388
-225.82056
178.68898
-150.19353
151.28784
82.756788
135.95617
-84.342365
-98.520849
-35.854761
3.9215482
-82.163063
595.03997
186.13556
40.700393
-743.62795
-88.022655
-550.82659
96.847078
647.51827
-144.87381
39.36534
-699.2767
-427.25584
-515.13609
321.62932
374.76425
945.27741
270.10073
-1153.4084
-1273.9509
-13.660048
584.19228
1586.7291
518.51687
37.353697
507.99832
-81.022093
-828.33984
-154.47997
170.97673
-700.72869
165.64443
854.77003
-230.47701
-260.16708
136.18437
-880.30018
-760.87207
561.96206
-307.03498
1250.0678
703.37114
121.1244
168.61392
50.615675
-83.688937
-960.02718
-427.0141
385.16992
195.02919
517.01414
-199.53676
-470.64933
492.94555
-568.41133
-300.89563
434.87055
-417.72155
359.21431
142.72584
159.88565
-153.02245
-195.26546
45.67834
-66.811253
-424.43567
1494.1796
609.58819
13.693682
-1626.2128
-23.508691
-144.79158
153.02669
172.5375
-183.49887
26.233638
-1559.2503
-2316.5129
-1665.8877
1835.8786
2094.524
1611.2473
-85.368327
-476.13225
97.634265
241.66162
-51.676036
273.88095
-100.24315
15.260487
337.95789
-4.1628313
-327.28476
78.472594
305.01843
-1180.3821
875.80548
1649.6853
-348.59695
-1301.5372
60.428508
-571.72594
-550.83335
701.89459
-207.50985
567.74551
1617.7724
276.7338
-531.83459
556.29314
-213.46402
-1705.4897
-122.58625
209.92308
59.402725
142.04739
-66.939882
-221.85321
1339.4442
-1291.1184
-287.64816
1350.8158
-1167.6654
56.170536
-36.115768
-65.472087
308.55152
18.721294
-16.483746
11.675825
-226.67003
-150.45239
-101.75073
257.99079
1890.2274
-165.80957
-249.27824
336.53183
-1889.8211
30.09488
2.6270393
2.8319466
42.595569
996.59053
232.80947
136.1407
-142.8048
-1222.7361
3287.6255
153.87011
-1384.8398
3081.2876
-1884.5896
-3253.355
106.30345
1578.6819
-655.90676
-1029.0787
1567.1209
116.94828
-319.27366
-597.69644
119.68824
139.76904
160.89286
-55.344195
-45.115501
-32.185709
-29.846858
-244.6351
-240.43414
-261.24637
-278.64179
2127.3624
-265.86137
1486.8953
-2929.6278
884.55944
-1303.3342
-4358.5788
-5990.3407
3921.6728
2378.4625
4048.7841
1215.2869
884.91055
-500.80496
-747.2854
-1077.2152
83.748984
64.339232
32.045869
44.960282
273.42331
-140.15831
-218.54048
153.58946
150.29738
-218.61269
202.90844
-192.25819
2578.3681
669.12302
-719.28416
-2538.8614
1415.1041
-406.21006
-377.35263
913.38832
-1197.1543
-88.407439
-111.50023
-88.914489
-58.961189
11.378356
432.75775
-563.53156
150.29237
-30.896923
-881.01788
1364.9695
1507.5091
-989.37915
-2086.2329
1084.152
269.69387
256.57902
-1336.3127
-1075.5337
303.32524
269.70998
311.22784
267.83538
220.52398
258.71749
229.14154
24.977039
19.544093
11.509156
-30.948787
-29.068517
-213.19824
938.75471
-1358.8087
552.33822
109.98158
-902.00415
-705.87938
476.17773
393.97404
737.73171
1587.6986
-1955.8165
2801.2492
-1629.5893
-1185.9492
114.52263
107.95654
76.838101
83.088215
81.396593
190.70414
-354.45709
336.04368
-231.40212
-22.287532
-27.54725
-1236.9842
864.63978
-851.06236
972.71958
278.21964
-724.07208
-285.22367
1133.3137
1489.6329
-1075.1189
-157.55849
-150.33489
-114.60534
-116.04209
6.6488226
718.6733
-726.38647
-20.025365
21.089224
-866.87997
171.6672
518.69577
-331.01323
-214.71444
722.24162
716.82218
369.85215
-1693.1968
-2014.8552
707.91422
697.4916
692.22696
366.14347
349.11693
255.70106
278.16949
-160.01343
-202.87793
-174.78301
-187.726
104.42349
-65.62228
-55.397619
-98.176803
279.95744
-165.20373
-199.81287
-148.53918
98.420578
85.372172
164.55817
305.63096
-3660.5736
5102.1817
1174.2459
-2883.0243
-38.464206
9.6367707
122.50644
-359.27758
459.66143
-17.099628
-215.42915
-257.60906
-343.27827
367.5353
281.61748
225.91159
-67.303478
-68.645097
-73.198325
-65.032843
-815.58348
-716.60336
1093.7572
1821.4272
-1001.4414
-126.48714
-105.71203
-68.121047
-81.243209
-34.628054
652.3501
-625.78837
20.48158
-12.41563
-473.3806
105.86867
232.59178
-104.37526
-198.80305
438.09198
31.351538
1289.8803
252.91278
892.6223
-283.62538
-22.964359
-278.13016
-344.91231
-348.19955
-234.82842
-208.33718
-205.7151
-182.80748
-187.68106
-169.57611
221.90508
20.724576
-1007.8539
814.81047
137.4291
-187.02611
-89.180911
46.795806
-31.884836
-7.0385251
81.305415
-822.56783
1105.3652
1663.2349
-1005.9249
-1506.867
566.75555
2.5453688
27.861391
-340.50992
488.65993
-14.669418
-163.88918
-219.75871
-242.5965
219.13324
158.2019
240.67632
-39.412066
-38.150613
-42.594042
-35.508384
-835.98677
-790.85769
816.90443
1790.383
-698.71351
-110.15027
-69.771277
-34.760283
-67.053895
-90.015326
620.42185
-582.1133
66.305959
-14.599617
-444.29182
161.13298
163.42118
-51.388298
-288.31772
459.43394
-49.079535
197.80278
479.50842
1530.9927
-394.36894
-66.607782
-329.80472
-356.19164
-344.01117
-206.69848
-208.52214
-82.807925
-64.121061
-63.576988
-42.520297
34.165425
32.811433
-1428.2469
1174.0635
167.53623
19.661095
-63.851985
120.96247
-75.929533
-46.237756
65.053856
-45.396824
1738.2307
996.95063
-1483.455
-1101.3638
-104.96922
-9.5950284
-90.408779
-304.50557
499.01836
2.6229305
-97.133253
-347.88807
-286.33964
179.89995
202.47264
384.04914
-33.918031
-31.718188
-37.623474
-28.941647
-884.25043
-751.06487
684.06586
1746.0606
-688.73585
-63.554577
-20.081424
7.3269153
-29.770412
-118.91997
582.30211
-546.9242
83.750698
-0.20907798
-550.42278
181.21673
118.63235
-19.913542
-314.97693
585.45548
-44.023601
-125.6006
144.07194
1499.7329
-366.44801
-48.744329
-297.79848
-304.83804
-291.90473
-154.96922
-162.24758
27.656761
33.41788
39.059556
52.629567
-156.6622
-36.290997
-1470.2291
1255.126
199.98708
208.06344
-90.97236
129.33585
-87.657479
-46.056238
95.34832
600.29129
1203.2794
1541.4966
-1090.2903
-1383.3208
-871.45665
-19.951303
-153.90034
-304.15006
500.08001
19.479006
-41.558108
-529.05183
-300.32767
163.26211
204.48036
582.59317
-30.700211
-28.809742
-36.330753
-25.122301
-1327.3078
-1010.6456
1224.9334
2303.304
-1492.1687
57.598185
69.830032
90.404664
84.048204
-141.24344
451.71413
-453.06141
99.462337
43.127962
-726.95265
160.02845
91.401346
-27.36068
-302.30723
805.18468
473.0518
-1090.1268
-2205.5234
-670.25504
497.3731
488.30042
501.99673
382.22302
396.88076
386.17908
342.23764
126.35143
141.68446
155.98097
73.64082
-282.46356
-165.29163
-1411.6769
1323.3057
243.42464
292.69661
-131.16308
92.944037
-86.909725
-12.27779
137.4053
1461.7796
-3690.7845
5405.26
1343.7051
-3454.046
-1065.9127
-42.718559
-128.18022
-330.06918
458.2241
45.997473
-3.2541628
-831.2101
-309.07379
111.08339
169.82478
943.90022
-20.76624
-19.817027
-29.262154
-14.682896
-1774.7445
-1680.9685
2651.9494
2661.3684
-3077.0785
303.84577
300.22188
301.22028
314.18172
-156.36682
161.58602
-245.5856
95.231947
145.13402
-1077.5495
-399.28926
-69.326938
-3.9315622
172.03957
1378.0515
211.20488
665.42595
-3010.1662
45.360459
325.33824
171.89906
284.14945
496.79064
503.96464
469.4762
460.12144
-188.87366
-160.00149
-101.78984
-172.90334
-534.26642
-421.31048
-1791.6222
1676.4183
329.08455
741.69331
-300.16674
38.64397
-110.16917
34.594666
337.09575
220.79489
-4469.6466
5838.3928
2598.515
-4159.6987
-28.35671
-85.220878
-126.59437
-282.20387
346.5004
86.699223
60.818483
-1459.1247
-408.17958
-11.56842
238.65255
1677.3061
-6.8338707
-8.1439099
-20.19396
-1.9202569
-3262.1212
-3317.8803
3918.8071
3549.4516
-3663.4735
674.4791
651.36019
709.14349
740.23114
-483.1394
-1103.0272
327.76447
-44.953069
1303.3547
-1929.3323
-2157.123
-116.78996
67.474178
1581.5798
2554.1948
-2870.3554
-1149.5839
837.26999
3352.5082
-959.12394
-1286.1822
-967.98472
705.16115
717.9709
612.64095
668.93268
-82.04279
39.996884
274.31208
106.4767
-1941.1668
-368.35712
-1565.6921
2583.8813
1176.0999
115.23279
-546.61221
115.35114
-59.031284
-80.867671
571.15916
-436.99763
-3740.4989
5966.0443
2888.9029
-5142.6983
465.24551
-272.08578
-496.67629
-120.05032
161.47795
300.70888
426.62449
-2040.2038
62.960978
619.92214
-161.28337
1720.9356
-43.896191
-52.394798
-61.935664
-44.111308
-2459.7429
1784.3229
-13143.092
5837.4943
10243.977
-685.58867
-476.62922
-322.14673
-778.59665
-1303.5047
2611.5311
-1939.7098
-1833.1847
1703.0805
761.78762
-4504.7049
320.69996
1772.0641
-2365.7079
460.40991
642.55152
699.22806
-174.87994
-156.85764
-184.38491
-198.85884
917.88815
880.35479
968.67344
923.52419
-5309.428
1726.3003
-6048.3052
-5013.6659
5710.563
2932.1916
1751.5683
2181.8683
2068.9045
758.55951
2433.5277
-4799.6381
-595.30377
-2300.4526
4503.3032
32.213702
-452.80575
361.39271
-424.09211
433.00341
50.288175
-3764.2965
6494.5161
-1048.8765
-8305.1822
1039.267
2429.2703
257.63197
521.40927
2376.2601
667.72045
-435.49491
79.333992
-83.714375
442.0707
-669.91642
120.79532
-1380.0973
1361.7664
268.65927
259.15645
228.99619
236.98501
-278.59596
-281.47768
-266.4387
-257.26436
3.5516547
-7.2886336
-6.8486664
-1.9036793
-201.65838
983.59148
-110.85736
-576.2145
-45.197921
-49.664392
-96.255496
247.63569
-188.72269
86.837742
-68.092006
18.596053
1333.0817
-303.03611
180.07704
-1677.9667
95.140387
111.44672
100.97214
93.477417
124.44711
181.79051
11.114071
-38.912261
-121.58016
-156.86025
139.46318
-2110.4367
-289.68941
2140.7818
-60.554841
66.544113
28.66251
56.875503
28.35548
152.45194
-50.17138
149.31503
-150.65763
-607.10209
1138.0764
1888.9533
-696.31939
-1906.9562
183.35108
1348.6472
-3056.4994
2425.9871
1786.5953
-624.28451
-1880.4522
1361.9427
33.904011
-263.84197
-48.959216
-1507.4732
-420.26755
-1426.5055
184.06528
875.54755
701.79216
-18.320762
318.93553
112.9533
8.2542722
-118.13999
-303.68261
188.92944
-1715.1014
-174.98038
1682.818
-261.18718
279.51895
-1609.5134
2866.4788
-416.12315
-898.13921
398.96852
-341.67148
-61.19452
-88.779625
-197.26267
209.10973
-5.5078635
143.63488
-670.4403
-589.51863
-13.391108
668.42984
665.34815
-4097.4486
-2711.1575
1090.4507
3662.6796
5343.099
4241.651
5296.5292
8740.7643
-8202.1589
205.74271
-10282.528
309.27116
-105.80726
0.018964026
-322.04756
-1349.77
-1382.4168
2629.1311
2546.2351
-2443.1777
1788.4235
448.14292
-84.580876
-409.75097
-1897.2191
28.444571
57.641506
47.831552
21.075211
-593.82312
332.47675
-1241.8638
-85.240625
-248.36711
278.92655
107.89622
-114.40901
998.19276
-416.22233
-347.0921
1027.671
-1603.0186
79.199524
91.883616
83.481088
85.901806
-765.775
-1991.1662
1796.2054
686.53425
478.54724
305.30577
433.21783
396.57196
3100.3146
-4286.8775
1069.6348
-2907.3869
-2148.9302
-2172.6994
583.29277
3078.7389
1021.8951
837.33911
775.50965
932.24145
235.62079
40.965336
-108.28539
-53.051815
-237.83926
633.05267
-471.55163
177.71928
-849.37538
510.15492
58.04622
251.63844
3.913312
8.8563258
-49.747053
-272.70858
554.95428
-830.1397
1444.0597
-433.49035
127.52817
105.15654
106.40212
140.81504
151.45687
80.531465
-301.87227
267.66073
-96.710735
-101.06746
-54.601328
54.266846
5.9654233
17.099686
-22.730468
-518.90976
-55.319749
300.58149
273.64832
175.91597
1099.0481
-1209.7384
-929.56921
-426.77744
239.38255
4.7588725
-312.42077
90.209762
196.25977
372.69966
-455.87522
-278.67091
165.58418
-65.935573
260.49336
207.17297
23.148282
947.13891
-2261.7513
1519.6271
1380.401
-963.33919
-622.07848
40.884288
517.10947
-1076.9035
-335.65217
351.12375
490.62624
-600.19166
94.090984
-1648.9938
2101.8222
-1870.7148
-1488.5261
1602.9077
667.08592
-5779.8235
-6545.5721
-1261.43
5876.1296
310.20361
855.26358
568.71251
-1201.1328
-5880.2869
439.99796
1582.8732
-1155.0776
6213.6211
-983.80556
344.88681
-594.84827
-773.43628
2192.3155
-185.11334
3228.6049
-15.263984
-316.09996
208.89371
-1706.8673
-1399.2676
-420.72547
-343.80971
-520.90412
640.92256
321.72577
322.78825
495.14449
-523.49632
62.251165
-463.85012
462.16361
1002.5129
-2754.339
-618.10827
-662.45691
-589.103
2467.2514
-890.86187
2712.8221
-1924.4805
-601.93864
-2043.9554
2452.0851
518.13945
371.50191
418.43159
416.09305
394.11802
1834.5466
664.5737
-2477.4903
665.07142
595.94982
698.56312
-385.97686
-206.73151
-345.12066
-295.36135
-544.03115
-348.62764
-425.05318
-455.6214
1025.2992
209.39314
672.0217
-348.00373
-4.6458917
-569.7504
40.983488
332.11985
-128.48361
-239.23985
222.02243
-259.29103
72.871337
6210.6538
3792.3825
-3259.1422
-4716.3646
-2493.4113
292.59893
-2118.075
-1472.9395
-783.38334
-348.00465
796.65954
-965.53419
1300.2623
-473.14908
-4139.8358
3887.3056
-470.07815
1195.7567
571.08729
-93.480995
95.856419
195.93829
-765.48166
516.3682
293.35198
33.451004
-15.18997
-430.2355
-397.73739
-253.12275
0.89524128
119.76246
420.50722
1045.0444
785.09103
107.83838
-200.56057
-194.90068
-211.71491
-199.7954
-605.62677
701.46193
118.32599
-57.23031
560.97374
-193.71968
-450.06152
498.47889
260.26082
-220.45845
-621.6223
533.4038
216.33852
-175.42947
-174.17485
-182.63241
-189.57055
1026.3662
416.64794
1412.6101
667.24576
-521.03829
-1465.9414
-699.97256
595.13067
-35.638581
35.707174
145.63101
-822.99352
-409.21271
108.00653
-1058.8601
460.64388
1169.5236
-2.3780174
371.76605
-286.96661
-58.257202
434.94074
-459.09341
6.8872409
317.53081
-213.71912
17.110789
1234.1368
505.85761
-726.35363
188.34485
-1410.7148
1140.0211
317.0202
504.17726
-938.62052
-9.997549
223.03329
-301.83679
-313.62439
-305.70654
-125.44048
1406.0466
4.2471298
26.422015
24.319613
-86.099555
-121.59943
-27.029598
-73.792929
-1015.117
-785.23238
-59.322297
522.07869
1473.7806
-970.75307
-1578.6676
1315.1848
1061.4077
-1386.4207
-420.91314
-2491.2763
705.63369
764.57272
840.38516
-308.34141
2681.8948
-2442.3949
322.43601
567.68859
-68.320577
-305.65908
134.06873
435.15369
77.030182
23.020213
-669.27278
534.3035
-202.86878
-155.19767
167.97231
362.22899
-706.42619
771.79107
1288.5304
-99.976662
432.56927
604.32364
453.91544
-3421.4261
70.699217
-62.250775
-0.14058398
290.9676
129.08836
-645.22894
-492.29371
-341.33328
-161.11236
25.343352
296.44329
221.21625
1406.5393
-238.23951
-8.7515267
-114.33869
346.19065
15.142184
-441.28218
-575.71917
524.77986
416.91326
568.25741
-2321.3756
625.84767
550.24976
590.14255
2725.0344
-981.87214
-2180.6668
340.41895
-821.17598
-878.08013
892.03963
1027.9654
-561.16708
-1488.444
-1061.8368
1345.9153
1190.6857
-752.09535
511.39303
96.245311
-310.14975
-117.5631
-606.93014
288.41084
-112.22376
33.843457
-382.26487
172.24025
284.48139
466.20259
30.159273
-1.5290712
-217.01061
-562.30013
-160.17571
251.0419
385.45357
-241.08484
1382.5422
654.21549
182.17725
-542.32219
972.52757
-247.7174
-257.01057
-266.46702
-73.5907
-69.630584
-59.808328
-56.75082
-208.41951
135.65325