/*--------------------------------*- C++ -*----------------------------------*\
  =========                 |
  \\      /  F ield         | OpenFOAM: The Open Source CFD Toolbox
   \\    /   O peration     | Website:  https://openfoam.org
    \\  /    A nd           | Version:  12
     \\/     M anipulation  |
\*---------------------------------------------------------------------------*/
FoamFile
{
    format      ascii;
    class       volVectorField;
    location    "5";
    object      U;
}
// * * * * * * * * * * * * * * * * * * * * * * * * * * * * * * * * * * * * * //

dimensions      [0 1 -1 0 0 0 0];

internalField   nonuniform List<vector> 
94133
(
(120.38456 108.16772 24.484751)
(-29.473711 -4.5116111 4.7259048)
(-125.23696 6.8302516 -4.0315091)
(-124.90189 11.480971 10.107571)
(-117.85282 6.7787727 21.058501)
(-40.029232 31.223103 -5.8926973)
(-68.375111 25.00675 -2.946828)
(5.4558699 -29.019823 -19.280085)
(20.358836 -11.398563 5.743957)
(31.300917 -4.9993422 -34.742293)
(-2.2125748 0.56393275 -6.0625405)
(-56.002691 3.5130492 30.934018)
(28.04568 21.733105 -25.4446)
(28.583721 13.544631 -2.0946059)
(95.424199 -28.007146 -64.827003)
(104.51139 -10.067833 2.7011156)
(106.46931 -2.2133996 -93.531619)
(115.74178 -0.23627209 -6.2828734)
(47.720487 -0.2708276 72.57552)
(102.69537 24.611254 -64.513351)
(108.17646 9.2246576 0.59917231)
(56.055599 -13.358778 57.816475)
(201.58459 -56.761096 -144.57283)
(209.60511 -15.354718 12.838499)
(118.75077 21.648739 141.96729)
(214.00396 -2.914201 -199.18359)
(229.55332 0.56702065 -3.9979568)
(133.66292 0.022334748 159.18303)
(204.48347 54.162732 -149.43775)
(211.83498 15.107174 11.610466)
(106.97172 -17.26364 142.37275)
(402.59554 -117.39481 -300.63668)
(385.19456 -39.323555 46.478304)
(251.36495 39.337331 320.82554)
(178.25711 13.034876 -566.20879)
(453.10737 -3.9862163 -413.51623)
(438.99112 -0.69649586 -1.3361299)
(248.8866 0.27333662 311.92118)
(411.53475 114.81631 -309.66631)
(394.78453 36.334816 37.088728)
(229.15118 -40.517941 308.0824)
(830.07559 -288.77237 -518.24374)
(698.30313 -96.143182 151.05261)
(365.43311 64.09544 604.12719)
(642.46295 -4.5301182 -1702.3329)
(1023.234 -5.0942353 -787.07476)
(820.41057 5.4672156 40.384077)
(418.92831 -1.636828 612.37068)
(844.47875 301.64396 -538.19023)
(708.27643 87.641835 132.61989)
(370.93863 -70.649616 606.31516)
(1721.8338 -684.60269 -674.45334)
(1160.8222 -197.46969 485.26939)
(519.54528 87.914565 1137.7704)
(2703.6505 -22.288623 -4954.8703)
(2374.5412 -15.034593 -1217.1027)
(1437.8317 -1.7566134 289.3124)
(615.29039 -7.1146696 1134.2504)
(1743.2954 717.73786 -727.54988)
(1176.736 194.7313 449.76416)
(570.719 -48.787729 1128.9097)
(3101.7863 -1312.1818 -105.52876)
(1553.0625 -306.93649 1305.8774)
(649.2808 51.629091 1872.4175)
(8832.0294 -104.66189 -15772.168)
(5189.0797 -20.057438 -761.27031)
(2022.8091 -31.076388 1076.1827)
(717.81472 -21.90019 1902.722)
(3276.2327 1271.7492 -255.59399)
(1601.5666 292.99392 1246.9511)
(660.85114 -35.882529 1894.5555)
(3304.4308 -1262.7241 2112.2896)
(1266.6128 -271.19964 2645.2624)
(460.1559 -9.939764 2768.9859)
(8506.1501 172.60306 -25659.185)
(5362.6625 -95.813355 2164.5824)
(1704.2993 -51.835391 2529.5985)
(525.00231 -30.639241 2761.9873)
(3722.3687 1173.4153 1902.0218)
(1383.3057 210.93078 2562.5093)
(493.491 -33.418537 2714.0813)
(829.86206 -211.99579 2315.2157)
(393.50198 -60.740599 3973.5146)
(60.629384 -49.394837 3495.8353)
(15.412115 -28.524027 3283.8507)
(-3716.2041 -466.76247 9496.4094)
(-178.22556 -220.47037 4358.2452)
(105.79337 -134.39886 3486.6845)
(46.886177 -57.835659 3289.8612)
(827.37934 -59.547439 3816.8837)
(231.29368 -62.554408 3418.6299)
(85.030153 -52.276441 3233.1437)
(140.56038 -102.18542 3259.5954)
(-2432.5436 448.6948 2685.4127)
(-1090.8518 -12.213155 2996.8954)
(-404.79109 -100.57401 3082.0998)
(-28454.365 -971.86397 -1989.0199)
(-4229.3877 -290.13202 2393.2573)
(-1215.0062 -198.71712 2897.2847)
(-415.28438 -95.45949 3076.1568)
(-1954.1571 -885.19295 2523.5888)
(-854.58231 -240.4918 2966.6269)
(-327.66828 -58.577124 3102.4246)
(-694.59268 -284.14157 2915.5101)
(-1890.5429 -631.93259 816.03332)
(-1348.2816 -184.06466 2013.4127)
(-571.19474 -204.10695 2450.2139)
(37765.797 -291.11387 2838.3838)
(-2757.5822 -499.18294 551.81964)
(-1379.4964 -282.39825 1888.7351)
(-573.87975 -142.98307 2491.7678)
(-782.74135 225.20527 437.26191)
(-1007.4398 -210.56696 2024.6346)
(-466.78522 -17.869211 2545.1552)
(-974.60384 -204.38102 1987.3176)
(-197.28884 -2169.4927 480.78933)
(-1104.2997 -442.367 1327.1799)
(-524.35488 -289.7586 1793.2109)
(44163.378 -184.37396 4157.5178)
(-814.44628 -613.9029 373.79756)
(-864.92615 -369.11301 1271.1356)
(-466.06631 -188.39464 1874.6054)
(1561.0994 1135.1494 445.94065)
(-640.02907 -52.303322 1440.7072)
(-379.42405 0.19235816 1949.7213)
(-897.93671 -90.246925 1439.0575)
(414.94607 -2864.5536 372.67275)
(-836.23433 -681.86683 890.16294)
(-417.47689 -354.76061 1255.0318)
(51603.132 -255.67055 3043.7039)
(1102.8675 -766.57552 426.30772)
(-361.16997 -431.75721 940.90292)
(-289.84735 -228.91848 1361.5191)
(2118.4612 1411.0762 441.74895)
(-282.24562 147.83185 1101.7182)
(-232.19444 4.3832694 1460.8385)
(-817.27547 19.558333 1108.7744)
(16.432475 -3307.6569 274.12661)
(-599.22199 -788.11342 566.08005)
(-321.40074 -394.77607 836.83783)
(58904.97 78.199416 2041.6861)
(3368.5948 -910.99097 318.16896)
(51.849698 -459.72825 701.97941)
(-136.5829 -264.04382 959.31075)
(2539.9179 1372.3046 295.80451)
(42.269386 318.20276 794.35904)
(-103.01017 3.1483022 1078.0044)
(-673.06962 170.49684 768.84062)
(1061.24 -3739.5714 110.08415)
(-442.08907 -801.00143 319.0565)
(-242.90196 -407.61372 516.30989)
(62550.635 343.07048 1084.4328)
(5475.7326 -937.52505 198.2256)
(376.90212 -450.02287 452.7386)
(-18.273837 -288.70202 633.79416)
(2648.0361 1341.0658 162.06062)
(343.49851 420.89278 530.85782)
(3.392806 -2.6242159 749.07216)
(-486.80508 227.88686 441.31944)
(1298.7496 -4227.3815 -43.86822)
(-338.97007 -779.66049 139.19554)
(-186.71316 -402.55324 274.18715)
(65960.056 549.21472 343.82377)
(3188.951 -628.04941 62.463681)
(659.49763 -460.09949 244.83012)
(64.47579 -309.60837 357.09514)
(2792.3976 1452.6987 24.794087)
(774.56742 540.57949 261.22184)
(89.809372 -25.441887 429.81433)
(-338.54932 245.12841 176.37734)
(1731.5467 -3337.6668 -45.263077)
(-268.1571 -776.4044 47.373363)
(-167.63582 -409.46557 86.811321)
(71564.283 723.29452 169.20027)
(2369.8564 -598.99832 7.9127291)
(847.55683 -462.33652 61.87508)
(117.17499 -347.9593 112.80438)
(2924.0531 1282.7246 -62.651834)
(1067.3636 498.85697 44.896595)
(166.64407 -52.135997 122.14782)
(-156.58338 259.01932 -9.334887)
(1338.9305 -2763.4277 47.626876)
(-261.20796 -794.33988 -50.017407)
(-168.46649 -451.88138 -75.900702)
(70210.812 764.27262 -139.01526)
(2391.9824 -583.45877 -59.748726)
(783.20863 -459.36238 -135.73521)
(144.3971 -366.00943 -128.70637)
(2847.6454 1306.204 -72.887649)
(837.44794 381.99951 -154.37463)
(164.4838 -62.536994 -181.53712)
(-172.78085 224.00289 -117.84079)
(912.81928 -3399.807 -220.03648)
(-284.38479 -837.79252 -192.38278)
(-170.25443 -504.43986 -234.6191)
(64903.548 637.68467 -636.81093)
(3254.2635 -653.18441 -163.78873)
(663.90947 -473.10162 -311.62704)
(156.1187 -355.52436 -307.87147)
(2645.9961 1243.8855 -175.73016)
(550.05328 277.79583 -335.82242)
(165.56583 -70.471875 -382.38403)
(-265.62676 185.16273 -374.32529)
(1282.7211 -3618.6935 -338.15791)
(-202.26872 -1012.0513 -431.11958)
(-109.01899 -575.92853 -349.56785)
(60398.551 361.71526 -1595.6894)
(5432.6879 -954.9592 -512.02101)
(616.01732 -502.92969 -537.32947)
(220.62491 -380.29934 -421.28023)
(2384.1268 1274.9933 -435.64968)
(443.41229 161.52564 -599.73466)
(224.89516 -120.74029 -564.14568)
(-171.34878 143.15335 -676.20743)
(1036.4206 -2613.6566 -594.65787)
(62.990602 -901.73195 -748.25489)
(85.833265 -429.45427 -272.3262)
(57814.827 11.190511 -2196.5062)
(2759.1275 -1002.0757 -711.92128)
(639.49835 -585.96212 -827.9574)
(402.97009 -410.88547 -330.63931)
(2064.8629 1010.3835 -765.85793)
(541.4087 -17.089887 -989.60767)
(430.53352 -268.71347 -668.05553)
(41.320386 87.343852 -1061.491)
(656.76692 -1650.6661 -1482.2028)
(571.32238 -517.17491 -1242.9107)
(613.16939 -54.561197 -30.169934)
(48275.403 -142.49804 -3205.7744)
(671.67601 -1037.6381 -1227.7516)
(840.62442 -657.50521 -1259.8969)
(904.34653 -421.75433 96.320016)
(1726.6573 540.09157 -1495.4034)
(941.10711 -349.54618 -1700.8533)
(905.98286 -583.34737 -560.96521)
(393.62041 13.611975 -1708.3456)
(364.07368 -311.36279 -3953.7114)
(1855.4098 -14.883171 -2236.5609)
(1898.2878 504.5228 1044.1195)
(40846.505 80.440467 -2460.3538)
(-1606.956 -824.61566 -2777.1295)
(1761.3468 -660.34566 -2272.2725)
(2160.0479 -560.18989 1397.2223)
(750.48169 -499.88067 -3851.9749)
(1863.3965 -776.26739 -2838.3212)
(1984.4024 -1232.2727 -122.95609)
(1096.8034 -69.082269 -3086.0692)
(2536.8108 -63.429353 -8034.054)
(4556.4914 457.25966 -3932.1003)
(5066.3656 2171.7494 3756.0698)
(-30007.106 -1492.4644 -1851.9808)
(-907.92 87.350905 -7585.3953)
(4671.8533 -815.35582 -4209.7357)
(5838.4059 -1129.0294 5736.5195)
(2015.5621 -957.3008 -8361.3852)
(3908.6538 -1219.2723 -4931.635)
(4589.4299 -3120.5483 751.80912)
(2292.0367 72.479325 -5271.4837)
(3897.2369 -111.90012 -9909.8377)
(3789.6797 -197.58496 -6696.3792)
(17142.263 9921.7932 3098.7005)
(-414.69013 -11200.177 40311.443)
(3541.4953 73.235908 -6954.3857)
(5891.9347 -417.75332 -9192.2481)
(20363.106 -4453.1992 6804.6495)
(6109.1487 1086.9424 -8831.9816)
(3451.4386 -825.85706 -6064.208)
(10476.901 -7436.0308 -2074.0463)
(1556.8437 1031.4157 -9388.103)
(3129.4101 863.35643 -9140.3352)
(-33029.758 -23557.514 -65552.859)
(-8138.7119 -33899.591 -1691.7461)
(-55395.75 -22755.494 16058.441)
(-1306.7281 2098.3529 -6507.3906)
(-18166.075 5677.7998 -2062.3015)
(-222982.08 121515.86 292707.94)
(6115.4881 -2311.9623 -5032.7236)
(-1956.2146 1891.2557 -13852.025)
(-4809.6101 11741.517 -5656.3437)
(649.81755 3066.5136 -5704.5636)
(-25034.945 56628.822 -897.91156)
(-9696.2463 -11241.542 10047.989)
(-4168.4457 9130.6926 -312.59324)
(-5288.3755 2676.7713 2885.9476)
(-8394.5974 8405.057 13790.881)
(9559.6755 -7755.0601 -4331.7153)
(5565.2364 5407.669 -1577.3848)
(-6331.041 6933.1839 3753.1525)
(-1807.4673 4656.1633 -5019.3992)
(-41537.366 39721.768 -2280.5829)
(-3653.619 -2955.3748 7126.3444)
(-9909.1303 9066.1707 -3422.1047)
(4329.6031 3360.8184 -976.53902)
(-1053.6122 1514.4916 4333.4446)
(17160.375 -10474.32 533.0929)
(5231.5615 2694.0043 -367.31114)
(-3932.0359 1439.0066 2559.7218)
(280.90458 4989.2092 -5228.2276)
(-40264.47 37141.953 1808.7592)
(-1938.6049 -2948.0633 4373.632)
(16603.747 -10703.787 -5080.6825)
(9329.6627 1872.3622 -1570.8232)
(1320.7532 -2056.6907 2152.7869)
(-8675.8571 -4138.6816 2733.4011)
(8967.8448 3225.5137 -232.43191)
(-3368.2908 97.180974 2174.4732)
(1215.6895 5342.2611 -4022.8801)
(-40678.616 34798.415 4245.7009)
(-1074.6287 -3481.6161 3662.3461)
(21281.054 -13042.286 -589.3889)
(12168.561 1963.9485 71.330396)
(2026.4442 -2870.6209 1649.3543)
(-13125.977 -102.75633 -153.2956)
(7884.7775 3001.4869 434.13883)
(-2990.6062 4.1071454 2862.172)
(1820.1528 6167.0475 -4357.6273)
(-41590.659 33677.24 5683.1489)
(-603.38796 -3527.1277 3808.7521)
(20226.098 -12285.077 1330.7481)
(12982.122 2760.5057 1491.1878)
(2299.7075 -2980.0753 2348.0395)
(-8106.5814 -2949.7914 -3858.6254)
(6922.1531 3530.8799 875.56346)
(-2702.865 4.9023647 4071.8129)
(3339.146 8312.2014 -8374.0731)
(-39770.862 35928.224 7337.5513)
(-676.81007 -3247.8598 4342.8939)
(-3503.4109 12424.992 4245.3031)
(11270.339 4050.5621 2076.225)
(2296.9178 -2196.3207 3409.186)
(13250.443 -12750.786 -6995.2838)
(2258.3423 3134.6254 1785.8738)
(-2328.379 622.86621 6116.4941)
(8267.5337 10581.075 -16907.228)
(-35004.502 43820.358 8118.3793)
(-1368.0894 881.34275 2266.8942)
(-640.00737 18527.761 -4587.3033)
(12024.07 5464.1913 2848.4616)
(1987.4976 113.47413 4900.8059)
(22485.676 -12884.708 -2219.8881)
(-2857.0977 605.4251 3529.1549)
(-1454.3256 1972.6754 8912.7964)
(20057.295 17656.011 -25974.649)
(-34778.844 -17770.159 72651.789)
(7218.1445 18574.663 -396.89807)
(25322.24 17178.996 -10739.272)
(11753.163 4687.3282 12495.097)
(726.602 1125.8861 9381.089)
(19689.332 -18247.254 -3520.3598)
(13563.026 -975.38973 4895.0341)
(-2151.8207 -165.81248 10046.552)
(7098.6225 76103.431 -31188.678)
(28067.196 -33721.402 57359.348)
(-12447.009 -5127.1731 29078.458)
(-25366.048 17481.443 44820.658)
(-3694.2792 -12264.969 28215.211)
(454.76824 -9020.3009 12970.046)
(25840.364 11334.937 -48860.976)
(-9753.5816 -17700.807 12389.876)
(1936.27 -7972.4318 8113.8283)
(8663.8263 -8166.0235 -34094.23)
(-1452.1132 -4651.4332 6846.7811)
(3022.5753 -531.64232 -10263.707)
(3513.5753 -120.06875 -5025.4027)
(1961.9543 18.973381 -10009.683)
(3458.4964 291.85886 -5505.0177)
(11461.282 5590.9823 -3991.1413)
(5795.9025 -2513.3871 -12976.412)
(4024.1648 -886.01063 -9272.2185)
(877.84301 -13338.601 39399.738)
(4351.6399 -192.77566 -5932.0529)
(4452.5143 -526.0997 -9314.1367)
(-9902.2315 -19647.512 22514.886)
(-1590.6074 512.26332 -5251.4587)
(20821.871 -901.52759 11009.154)
(13060.484 -3759.2529 -14468.41)
(-389279.93 111571.29 595368.65)
(4574.13 -6.7560461 -6644.5433)
(-52858.592 77201.648 113734.35)
(7681.6689 5368.0253 -5809.3566)
(-18594.292 -43402.166 46284.902)
(-1230.6578 -1379.1292 -5656.9305)
(14093.086 688.69054 -6254.9942)
(13742.256 -8914.0571 783.36908)
(-230300.02 109531.74 329655.81)
(6931.3029 -3460.6977 -6799.3162)
(3148.6787 56.61847 -5932.4649)
(2562.3081 1801.0618 -8894.241)
(1899.5347 -679.93402 -7955.2543)
(7278.0589 -1244.647 -6388.3251)
(-2539.8701 -2248.8807 -11153.129)
(1490.8513 345.63771 -5332.483)
(-29919.636 3536.1924 -18487.984)
(9171.1036 -4746.105 -4771.1751)
(2197.3767 -601.54911 -8143.6993)
(4815.0725 -1376.3551 -7267.5711)
(-1393.3273 -1027.0406 -13337.257)
(4125.7293 1058.8551 -10160.297)
(-41086.794 11285.257 -36524.702)
(7344.5516 -1971.3564 -8730.1565)
(47158.254 -22601.398 48192.708)
(-1296.4767 42510.624 35887.604)
(7103.4692 -1169.0644 36687.281)
(26432.153 -21353.607 -49566.85)
(-10069.732 92070.912 -41349.724)
(-16009.338 -20365.594 13218.492)
(-1773.357 -10688.989 13382.26)
(-5192.5828 -18485.667 15427.788)
(-306.33643 -11423.282 11061.45)
(-17550.302 -23740.029 13980.296)
(-3220.8854 -16738.042 10954.83)
(-4311.3072 -10860.822 7171.1398)
(-11429.597 87980.847 -113392.96)
(-9365.2785 62259.422 -28024.388)
(45730.836 623573.24 -32143.662)
(2323.9378 -300.35547 -7816.9161)
(3772.0038 173.80767 -5327.4228)
(3213.0006 -686.10268 -9521.5891)
(4264.7343 82.633662 -6502.2774)
(4291.6284 459.31043 -4195.4926)
(5012.2622 1635.097 734.1431)
(4860.6571 707.65822 -5956.6302)
(9623.4947 4391.5667 -903.59846)
(2175.8723 -43.956173 -8462.7144)
(-7545.8403 7522.8838 -2369.0844)
(-242.62631 1532.7326 -7042.06)
(3814.1098 -1044.1051 -9124.2921)
(-29041.969 -9925.7976 117277.66)
(5332.0553 67.900181 -7703.3287)
(5963.7565 -44.870675 6499.0909)
(12445.493 6876.2484 5402.966)
(17925.077 284.17221 14320.951)
(-3393.1853 206.13604 -6550.0629)
(15623.248 -8326.2009 -3768.8183)
(1185.9817 -1595.1024 -8074.3967)
(14479.828 -5575.4325 118745.27)
(4676.5306 -455.65754 -7182.6448)
(-18447.814 44456.38 69487.876)
(4750.7726 2919.4906 -7954.2318)
(2434.4207 -1165.3551 9531.3069)
(4955.8352 -3105.7076 2018.8527)
(17654.847 -4057.9548 11220.731)
(-7499.3224 -13988.938 46649.702)
(10582.396 -6654.0278 1757.5667)
(3518.3146 -1068.1667 -6139.3247)
(1354.1848 232.81282 -7291.2408)
(2875.3259 -257.6663 -6215.1548)
(4505.4748 312.36558 -9456.7588)
(3833.7154 -795.45679 -7260.1507)
(2288.8875 1275.5365 -8714.9435)
(3074.0066 -342.96254 -8406.9769)
(4877.4369 -2587.8512 -924.05624)
(3232.0303 -1070.3519 -5514.302)
(3036.4945 -1059.6617 -3022.4118)
(4281.4532 -1044.3057 -6412.4654)
(8064.5448 -4338.8911 -3117.3884)
(3394.9641 -1426.6131 -8459.3449)
(4266.7121 -1119.2861 -5894.2545)
(3387.6755 -345.15364 -6206.5502)
(3399.5608 214.35772 -8477.1553)
(4597.1 -31.50488 -9627.4307)
(2579.9879 851.76463 -9639.6773)
(-11202.662 -9036.4256 -28535.855)
(-73.416749 1827.9244 -7870.1485)
(-3913.0337 1222.5347 -9681.9987)
(14108.448 5778.3486 -1334.422)
(6215.9873 -328.23843 -9286.1748)
(17072.034 -1263.2905 6022.3597)
(-14477.753 -15999.7 -42572.804)
(2867.631 -8625.5174 -11266.066)
(-15689.601 635.41796 -5376.1474)
(-227925.44 55585.3 256801.63)
(4432.2697 -202.33805 -9751.5053)
(6206.6437 561.87818 -9044.1801)
(4588.8142 -1084.783 -9119.0538)
(-613.23916 96.642559 -8437.1525)
(-3790.8992 2093.9248 -9701.3561)
(9095.3178 -1769.6441 -5783.8214)
(2171.089 -2172.5577 -7876.5169)
(15648.91 -3283.2033 4772.5349)
(5495.5421 -1194.3317 -8672.0004)
(11685.847 -4801.6418 -3554.7853)
(-11108.19 3487.7215 -7477.7394)
(-185804.75 92341.773 215296.23)
(2814.2801 671.80196 -8063.2259)
(4352.0646 3184.3951 -9298.9756)
(43081.572 272.69384 -71103.216)
(13008.358 -8646.105 46808.657)
(14741.767 -6798.3272 3520.7156)
(7368.597 -30638.733 -3413.9773)
(14655.509 -16854.673 17183.399)
(-81987.422 -65110.207 20419.848)
(21884.899 -199.15637 898.03796)
(6091.9542 -3642.3535 -11482.335)
(5800.1006 -2053.9735 -6872.9225)
(2582.6911 -1506.3039 -5874.1559)
(2650.4127 -2423.2855 -7546.7199)
(4198.8329 -1827.504 -6106.6966)
(5234.8247 -1741.1484 -6520.4369)
(1346.1752 -274.96026 -7391.0015)
(-26534.107 3215.7538 -16161.235)
(2173.1436 71.259151 -9544.4499)
(1242.8874 785.35822 -7627.2529)
(-4441.7906 -12264.691 -11126.627)
(-12131.941 -10651.463 2533.7103)
(6269.5729 -1553.5965 -8496.4364)
(-110188.88 -110204.54 203098.79)
(-1952.4595 1500.8609 -5110.2691)
(7128.0224 -1218.4518 -4974.1292)
(-200162.56 342071.29 66383.915)
(2350.3911 6755.0049 -177.78716)
(-382279.16 120751.9 508871.67)
(-12440.788 -18245.426 9414.2057)
(-23674.366 3979.822 24869.843)
(-2020.6306 191.50391 -4982.1621)
(14713.626 -181.64369 -2274.1993)
(-285.62946 8712.4774 190.31977)
(-3707.0416 -11848.525 -16.371876)
(-18968.198 16697.844 26084.206)
(-11073.553 10771.897 17133.512)
(-9107.4481 11288.576 7299.1966)
(-5723.0516 578.69891 -16100.433)
(1501.7969 245.43938 -5238.5164)
(5475.629 -7121.0799 -4999.0817)
(-19286.047 -4257.3191 -4833.6449)
(2125.7488 195.70003 -4692.057)
(-4418.7029 9370.0497 -8199.7379)
(8019.561 -3672.985 -7863.7004)
(3794.781 5059.8137 -2817.3229)
(-7416.2704 8457.409 1193.5465)
(13790.27 -7267.8838 -6144.7526)
(8140.6497 51693.125 -17683.558)
(-416274.8 -142326.14 -1664369.9)
(-4061.7924 34047.232 42399.078)
(-74161.794 15007.365 -1086.7751)
(-37449.223 30939.499 18931.599)
(7154.6811 -22155.231 -13456.127)
(-61805.362 21876.432 5138.3516)
(-4764.0098 -7009.8407 30300.819)
(7457.3217 -35825.78 16426.1)
(-612.01335 -21947.09 15094.281)
(-71305.001 40170.123 2836.2192)
(-23030.057 -19098.253 14999.094)
(-75804.476 659678.58 -105457.86)
(-6953.3868 -13361.716 5899.9874)
(2231.9138 -10187.616 8438.1447)
(-1707.5759 -9685.878 9815.8369)
(20111.644 -9799.8818 -24995.011)
(-4384.5942 41097.821 -11169.318)
(-49716.85 1741.2654 8518.7882)
(-31764.35 -65259.568 -21150.515)
(-1493.85 -20928.021 7231.6679)
(-7015.0645 -3054.4468 3530.735)
(1800.3462 -343.80552 -7969.049)
(2721.6286 720.45627 -6576.3168)
(2650.1065 -245.41582 -6852.4862)
(2603.677 -466.88809 -7465.9082)
(339.13445 2682.6988 -8816.8965)
(2397.1236 775.41613 -7946.1498)
(1787.9853 -237.97142 -8179.7736)
(-1013.5486 -396.0782 -8518.2632)
(-2392.0496 1667.5954 -8822.2056)
(1227.2852 610.88068 -8339.686)
(488.49379 -697.60298 -8279.4694)
(5745.3311 -186.26761 -10530.295)
(2946.1953 731.83456 -7192.3424)
(5373.5661 1800.5723 -4133.7868)
(5843.2179 1106.9135 -8648.5905)
(-2114.9425 827.35077 -13127.921)
(6344.0227 2182.7276 -11991.64)
(4890.7897 -1885.094 -13679.549)
(5997.1925 -16902.355 -32560.472)
(-7404.0361 -3698.5488 -19609.833)
(5721.8658 466.98103 -18116.963)
(1751.4027 -12245.684 -25859.454)
(8177.3102 -2946.7923 1161.7835)
(5711.0842 -809.3863 -6908.9839)
(12023.761 -2452.3508 -2472.7833)
(1661.4044 21.164419 -6032.5877)
(11547.215 -4028.1931 -2281.3829)
(3518.2441 181.94254 -5855.1916)
(7507.7945 -4861.0991 4057.0471)
(4147.2969 982.16469 -2732.7615)
(-200.86685 -213.90048 -6367.9425)
(3090.3686 1570.1002 -6631.5043)
(-10599.015 1488.1058 -2650.6434)
(1969.7389 1731.1863 -6363.1355)
(4624.0947 -2668.1092 6395.1078)
(2972.3819 1590.8623 -4431.9252)
(31084.489 57227.979 22724.99)
(18291.39 4493.2379 6971.5159)
(13581.312 3160.4987 51165.837)
(50053.886 -15182.336 -17162.25)
(21084.448 23323.976 37707.116)
(29552.396 13315.192 -2462.7075)
(-6115.5757 25283.333 136379.85)
(34820.877 60980.245 27060.102)
(-13242.798 -26669.607 127762)
(-75904.486 -41567.522 101518.81)
(-1073197.7 560231.98 2364904.2)
(15416.638 -2294.1644 -3944.3207)
(-323042.56 -138775.71 680486.13)
(14306.901 26126.222 58044.467)
(8297.8468 -1093.1956 -2830.4738)
(10984.665 -955.75267 -2185.6643)
(4009.8511 -187.7508 -7417.2447)
(1699.9595 -676.36999 -6796.3543)
(6420.279 1836.6072 -5109.7259)
(4937.699 -2121.7302 -5103.8912)
(7504.4687 -2003.1208 -2286.4473)
(488.67123 -1493.1929 -6643.5996)
(4028.6228 -3242.7915 -2932.5308)
(4791.0281 -2418.9078 -4572.0374)
(3796.361 -309.46116 -7565.9607)
(-31732.84 52071.232 18623.101)
(8051.3972 -10873.485 -15593.824)
(-69034.559 -45507.389 162150.61)
(-344148.28 -174322.64 678646.45)
(23977.146 5132.1988 -670.35058)
(-128882.88 -352335.57 662506.13)
(2750.0398 -1040.3636 -7676.5015)
(3895.3155 -802.17886 -7372.7122)
(2987.055 -1113.2499 -5726.1547)
(2507.6131 -1478.8438 -7299.465)
(3189.8777 -281.46503 -7338.8049)
(2172.7174 -1941.2995 -6884.8362)
(2297.0641 -486.71014 -7527.194)
(2500.177 -1839.9154 -6867.9008)
(2530.1292 -376.96899 -9955.013)
(-3143.405 -680.16911 -11183.363)
(3062.4794 -201.09398 -7478.8575)
(-348.00705 -222.88122 -8325.1599)
(1428.7227 -969.3792 -7114.5521)
(1729.7322 -1082.5044 -7694.3632)
(886.75229 -3318.7364 -5644.7283)
(2334.8106 -1254.1454 -6645.9956)
(497.56469 -1012.7135 -7004.1014)
(5817.6103 -3370.4206 -15999.54)
(1739.6253 -1885.5856 -8628.0212)
(3694.5927 1441.6367 -5752.7421)
(4431.833 -1040.7553 -7055.9824)
(4198.5789 17648.534 -41158.105)
(16368.572 31762.715 24134.574)
(-37511.874 31553.301 47016.075)
(-6116.7821 18265.597 11528.545)
(-35626.341 8516.1772 12841.451)
(7906.2199 57037.021 13450.433)
(-24566.952 24871.026 34927.16)
(-3541.5322 9792.647 15495.421)
(-7173.2912 -17692.145 14342.64)
(-3013.7194 -16718.244 10460.058)
(-13581.922 -14767.061 6795.3949)
(-1792.7252 -8668.117 11389.004)
(-10319.829 -19354.587 15420.593)
(-2825.5029 -14324.946 9253.5396)
(-4267.3784 -13560.492 5695.0195)
(-49226.818 35703.086 -50000.17)
(-165231.82 131243.21 -84857.292)
(-19390.403 283578.49 -62574.011)
(-84589.395 -32532.045 -6658.2933)
(-22907.874 156724.31 -89313.115)
(-6589.8394 14605.655 -16174.095)
(-20870.698 223055.51 4940.0542)
(-46576.976 -49290.546 -25871.86)
(-16389.238 -6568.416 -2168.731)
(16.517472 -20.562382 9.9503803)
(12.244709 -17.095383 9.0519185)
(-264.27053 -30.091065 -41.598729)
(-1.2405574 -25.306001 -30.785443)
(-11.305836 11.46305 8.6996634)
(-138.65112 30.315836 -2.528357)
(-82.353907 23.611885 10.186948)
(-10.859617 -29.279926 -7.4748755)
(-2.8314973 -12.442467 5.4103579)
(-3.5963781 -11.928285 -23.657949)
(-40.650928 -1.9798718 -3.5087705)
(-91.564436 16.683634 12.528599)
(-76.529564 30.81236 19.487506)
(-21.640726 -15.58415 5.9108954)
(-13.122277 28.081158 10.34013)
(-55.194931 -1.7490512 3.7018431)
(-47.002418 11.555949 15.845699)
(-101.72756 33.636942 18.31499)
(-63.985561 28.113005 25.411543)
(-174.72584 -37.138436 -4.1083452)
(-51.067646 16.734733 -5.2565607)
(13.609752 -14.997138 -25.240363)
(16.390216 9.6418333 -21.47868)
(-112.54932 12.485833 6.4443827)
(-72.747648 5.9607143 -4.5258362)
(-84.934943 18.336311 0.74891772)
(2.4404728 -5.9800416 -25.171544)
(-43.558562 11.409783 -0.85586621)
(16.688838 13.852122 -19.020853)
(2.8725329 15.064678 -7.2202557)
(-82.425561 6.4003598 19.629805)
(-90.580347 15.821555 3.0669113)
(-40.405032 -26.469314 11.997681)
(-67.056698 11.30166 5.6767233)
(-53.296965 8.4829065 18.161664)
(-14.00407 13.91571 -2.6692488)
(-30.034315 -15.240958 10.09635)
(-68.691327 11.74352 28.641877)
(-15.605113 -27.938385 11.09677)
(-57.273869 19.196249 -1.8533578)
(10.539012 27.992573 -16.158382)
(12.457711 15.982807 -6.3201545)
(1.3642963 16.108673 -2.9122694)
(-17.770858 -18.954891 9.7606379)
(30.459797 -20.554179 0.69303374)
(66.264642 -27.720485 -46.799466)
(76.958782 -18.090218 -12.323742)
(27.026729 -16.464007 5.4802685)
(75.324082 -13.919618 4.2473498)
(-0.16120231 -39.194316 -31.988229)
(28.559063 -15.886198 -42.041173)
(57.325697 -21.352466 -59.533019)
(80.821725 -6.8412753 -83.957201)
(27.940177 -11.701521 0.096370807)
(29.455067 -10.757445 -35.602251)
(18.096947 -2.3565163 -11.09798)
(74.833007 -24.51244 -51.195965)
(87.150962 -13.480736 -14.64358)
(91.067288 -7.3068946 -69.959759)
(98.079749 -3.9959689 -23.794403)
(-10.342532 13.031779 15.66815)
(8.7932851 -2.8808392 -3.659771)
(-43.986561 1.4225691 20.433624)
(83.469183 -9.5915503 2.0323419)
(46.166677 6.4863966 38.336841)
(92.516843 -2.4519385 -4.2671984)
(46.93269 0.11094508 42.989804)
(-53.098336 12.765659 30.26692)
(28.870497 1.5401242 55.424583)
(35.157056 -8.5365497 -35.657073)
(37.171927 6.7166237 -24.234359)
(78.37172 -3.1445688 -83.061564)
(75.222241 13.072166 -65.434596)
(-58.557781 1.0016245 23.957066)
(28.341022 11.431222 -2.933738)
(-18.693785 -6.4333995 15.77229)
(92.686565 -0.065122604 -6.7022735)
(45.782741 -0.058114788 43.524149)
(90.984645 7.6409142 -2.8213993)
(47.318842 -0.49229928 40.925459)
(-20.749419 -20.217596 20.457818)
(17.512871 -3.9684535 59.600281)
(24.660664 -8.3168775 53.425129)
(24.332358 23.770179 -29.198355)
(60.372545 19.852414 -58.731095)
(33.369064 14.655729 -7.8072771)
(82.523995 21.052391 -50.484008)
(91.55029 13.516034 -16.977934)
(-10.819043 -15.782469 14.328831)
(87.304355 9.7546133 -0.43091494)
(48.497468 -1.9767068 41.774876)
(37.525121 -14.690505 38.84794)
(132.82825 -42.636278 -121.58008)
(85.975731 -29.700333 -58.513638)
(101.58624 -15.851707 -14.613362)
(149.5981 -43.957205 -105.28166)
(179.08857 -25.05271 -25.018469)
(97.119092 -9.7891369 6.3075944)
(169.37234 -12.71096 12.893287)
(118.72138 10.249892 89.698799)
(72.603228 -23.799334 -75.292465)
(101.29283 -9.5118745 -103.53012)
(149.72343 -50.061918 -136.08537)
(172.56178 -19.445174 -188.19483)
(109.49809 -14.557413 -18.659188)
(111.84826 -9.0267445 -86.559677)
(120.62222 -4.8694406 -29.185798)
(170.33316 -45.902401 -116.66311)
(188.67539 -22.705952 -32.343134)
(186.0397 -15.530869 -155.75816)
(202.40115 -9.0692678 -49.035088)
(60.541001 10.352698 49.070784)
(115.9065 -3.0671264 -4.0917812)
(70.214926 1.3113892 55.30908)
(179.47301 -12.460278 8.1651261)
(126.13048 13.651753 103.5322)
(193.10065 -5.9428634 -3.0205586)
(136.71217 2.3484517 105.19095)
(51.803025 -0.37393831 70.949711)
(101.29223 16.777785 116.82607)
(111.9951 5.5075425 134.5556)
(96.210686 -2.8565442 -110.33109)
(95.187968 18.098371 -84.604915)
(161.56786 -2.3229096 -206.34119)
(171.46988 41.366215 -161.3024)
(48.386298 -10.447314 67.68111)
(112.39777 0.39457875 135.36109)
(111.41202 -17.223763 129.61634)
(87.60789 24.052647 -75.834583)
(150.89412 49.473971 -145.59503)
(112.96546 13.740733 -20.346548)
(172.05703 44.821181 -121.60078)
(189.07454 21.850239 -33.045934)
(68.735954 -5.4002532 52.647153)
(180.7091 12.386526 7.6395385)
(127.12851 -14.907191 103.66024)
(101.35028 -18.240467 116.0674)
(158.71233 -51.762715 -150.70416)
(261.575 -94.275395 -260.12318)
(174.05083 -51.46027 -127.4019)
(211.03284 -30.358706 -27.380894)
(309.25384 -118.62287 -219.5642)
(341.58988 -55.844997 -34.021384)
(196.43193 -15.588329 18.165473)
(139.86991 13.682347 112.95205)
(312.73955 -30.997692 44.80949)
(237.74368 31.55123 217.95997)
(170.88834 26.52117 199.94591)
(179.05216 -61.314447 -168.46092)
(206.597 -23.049181 -231.06306)
(302.3277 -111.25853 -302.10124)
(362.24378 -41.059409 -398.83497)
(148.34753 18.00515 127.18141)
(228.54448 -6.7213577 -0.67005819)
(159.85025 2.6208789 127.50112)
(330.86161 -32.243548 33.236648)
(233.92373 13.282136 222.87277)
(364.91217 -17.515736 2.7168591)
(253.79736 3.077918 218.03267)
(134.15194 4.6673227 159.3065)
(182.84063 28.853645 246.97124)
(207.33738 5.8084198 265.48933)
(195.39299 -3.4046383 -246.82778)
(201.73578 51.163109 -199.45133)
(50.199928 38.334514 -422.35875)
(353.54363 -3.921911 -417.12313)
(341.74143 81.935569 -350.32738)
(129.6154 -19.463301 154.55003)
(211.75726 0.1836742 264.29403)
(210.21362 -17.54271 260.32832)
(181.88383 60.249859 -179.52117)
(328.62078 104.81885 -311.468)
(222.52437 26.50723 -38.379896)
(344.67269 91.005613 -256.7878)
(363.12861 46.883765 -59.397986)
(293.10457 27.921718 -8.3345742)
(151.22136 -13.593074 121.93192)
(339.18225 28.981343 26.707118)
(235.69404 -15.720661 218.05382)
(285.9781 22.72153 61.958689)
(205.95665 -35.347353 260.04987)
(320.73867 -118.39568 -307.17234)
(584.32933 -286.04067 -494.29048)
(370.39261 -142.79945 -259.33042)
(399.51782 -62.897516 -33.713301)
(622.96944 -264.02175 -388.65604)
(629.77265 -115.12573 -10.623873)
(365.47668 -36.895438 61.1004)
(246.55367 23.658106 252.79609)
(574.14564 -69.990681 141.78442)
(384.13945 51.316157 449.54502)
(209.18115 22.504649 273.02941)
(296.79935 48.884998 471.51916)
(376.81433 -131.44424 -363.68558)
(50.610983 9.38292 -460.69079)
(433.64476 -53.919198 -488.35359)
(677.81977 -279.41923 -588.0207)
(465.256 -73.962843 -1079.0218)
(815.72712 -102.81614 -810.83547)
(235.69801 8.0738713 313.02203)
(326.69835 56.608269 513.68417)
(369.32866 7.8167318 520.07243)
(428.77717 -4.3896027 -513.49151)
(412.97665 101.73378 -427.1199)
(433.35734 -13.742383 -1315.9774)
(826.40376 -10.676281 -853.00786)
(750.58901 220.43332 -682.75239)
(239.2516 -19.764545 311.08933)
(372.94474 -2.0108056 519.42735)
(337.40373 -25.66051 517.96377)
(396.75718 129.25359 -379.97895)
(682.43158 275.58293 -596.61689)
(427.10917 57.233039 -64.009034)
(350.17842 34.03428 -7.9072184)
(698.24 235.09864 -469.88907)
(686.19404 112.64563 -66.792066)
(540.53581 78.828428 42.327566)
(272.74748 -17.095784 261.69707)
(331.03293 22.726441 67.642667)