/*--------------------------------*- C++ -*----------------------------------*\
  =========                 |
  \\      /  F ield         | OpenFOAM: The Open Source CFD Toolbox
   \\    /   O peration     | Website:  https://openfoam.org
    \\  /    A nd           | Version:  12
     \\/     M anipulation  |
\*---------------------------------------------------------------------------*/
FoamFile
{
    format      ascii;
    class       volScalarField;
    location    "0";
    object      thicknessFraction;
}
// * * * * * * * * * * * * * * * * * * * * * * * * * * * * * * * * * * * * * //

dimensions      [0 0 0 0 0 0 0];

internalField   uniform 0;

boundaryField
{
    inlet
    {
        type            fixedValue;
        value           uniform 0;
    }
    outlet
    {
        type            fixedValue;
        value           uniform 0;
    }
    walls
    {
        type            fixedValue;
        value           uniform 0;
    }
    rocket
    {
        type            fixedValue;
        value           nonuniform List<scalar> 
822
(
0
0
0
0
0
0
0
0
0
0
0
0
0
0
0
0
0
0
0
0
0
0
0
0
0
0
0
0
0
0
0
0
0
0
0
0
0
0
0
0
0
0
0
0
0
0
0
0
0
0
0
0
0
0
0
0
0
0
0
0
0
0
0
0
0
0
0
0
0
0
0
0
0
0
0
0
0
0
0
0
0
0
0
0
0
0
0
0
0
0
0
0
0
0
0
0
0
0
0
0
0
0
0
0
0
0
0
0
0
0
0
0
0
0
0
0
0
0
0
0
0
0
0
0
0
0
0
0
0
0
0
0
0
0
0
0
0
0
0
0
0
0
0
0
0
0
0
0
0
0
0
0
0
0
0
0
0
0
0
0
0
0
0
0
0
0
0
0
0
0
0
0
0
0
0
0
0
0
0
0
0
0
0
0
0
0
0
0
0
0
0
0
0
0
0
0
0
0
0
0
0
0
0
0
0
0
0
0
0
0
0
0
0
0
0
0
0
0
0
0
0
0
0
0
0
0
0
0
0
0
0
0
0
0
0
0
0
0
0
0
0
0
0
0
0
0
0
0
0
0
0
0
0
0
0
0
0
0
0
0
0
0
0
0
0
0
0
0
0
0
0
0
0
0
0
0
0
0
0
0
0
0
0
0
0
0
0
0
0
0
0
0
0
0
0
0
0
0
0
0
0
0
0
0
0
0
0
0
0
0
0
0
0
0
0
0
0
0
0
0
0
0
0
0
0
0
0
0
0
0
0
0
0
0
0
0
0
0
0
0
0
0
0
0
0
0
0
0
0
0
0
0
0
0
0
0
0
0
0
0
0
0
0
0
0
0
0
0
0
0
0
0
0
0
0
0
0
0
0
0
0
0
0
0
0
0
0
0
0
0
0
0
0
0
0
0
0
0
0
0
0
0
0
0
0
0
0
0
0
0
0
0
0
0
0
0
0
0
0
0
0
0
0
0
0
0
0
0
0
0
0
0
0
0
0
0
0
0
0
0
0
0
0
0
0
0
0
0
0
0
0
0
0
0
0
0
0
0
0
0
0
0
0
0
0
0
0
0
0
0
0
0
0
0
0
0
0
0
0
0
0
0
0
0
0
0
0
0
0
0
0
0
0
0
0
0
0
0
0
0
0
0
0
0
0
0
0
0
0
0
0
0
0
0
0
0
0
0
0
0
0
0
0
0
0
0
0
0
0
0
0
0
0
0
0
0
0
0
0
0
0
0
0
0
0
0
0
0
0
0
0
0
0
0
0
0
0
0
0
0
0
0
0
0
0
0
0
0
0
0
0
0
0
0
0
0
0
0
0
0
0
0
0
0
0
0
0.697162
0.806201
0.80627
0.777869
0.360258
0.503315
0.696147
0.804148
0.804911
0.804991
0.804977
0.799208
0.342269
0.313988
0.183666
0.221825
0.248559
0.323466
0.143702
0.176579
0.238014
0.146513
0.199677
0.231296
0.0896437
0.154298
0.192212
0.269183
0.3243
0.216558
0.384147
0.274184
0.29347
0.335495
0.218706
0.253941
0.335021
0.282839
0.20601
0.189166
0.178195
0.124524
0.183264
0.252329
0.287563
0.227293
0.318018
0.523591
0.776918
0.582854
0.605136
0.806283
0.6052
0.605188
0.806164
0.60509
0.162587
0.0892679
0.140982
0.0527452
0.185473
0.38077
0.142517
0.521003
0.775733
0.579841
0.222802
0.221355
0.799158
0.601274
0.597463
0.60186
0.80499
0.601919
0.223047
0.223048
0.804994
0.601918
0.601921
0.601906
0.804874
0.601816
0.221227
0.222738
0.597304
0.804083
0.601164
0.0676168
0.0716847
0.13631
0.21061
0.0818351
0.192284
0.176024
0.110321
0.0306045
0.297566
0.287187
0.210423
0.204054
0.145893
0.0908406
0.0316571
0.223123
0.172124
0.226141
0.0757526
0.160918
0.213987
0.170656
0.776729
0.19337
0.193471
0.504055
0.805432
0.806285
0.80045
0.214617
0.193079
0.20562
0.189395
0.177674
0.194422
0.272215
0.328332
0.218613
0.32417
0.579981
0.582916
0.701588
0.700684
0.522484
0.524875
0.216413
0.194567
0.0533383
0.141773
0.144244
0.144557
0.514841
0.515313
0.383755
0.385074
0.0535502
0.142621
0.144218
0.176798
0.238645
0.251837
0.287299
0.226833
0.318198
0.124218
0.183466
0.320941
0.186562
0.224056
0.257433
0.221572
0.256856
0.342352
0.296304
0.405668
0.362682
0.337124
0.377542
0.224493
0.326092
0.292006
0.227409
0.145519
0.192928
0.214747
0.223026
0.223047
0.223041
0.223002
0.297521
0.287613
0.210584
0.20402
0.261026
0.194999
0.10742
0.18419
0.185762
0.382616
0.143213
0.142087
0.053152
0.1945
0.216575
0.800417
0.604532
0.60066
0.224777
0.223293
0.225011
0.225036
0.806287
0.605203
0.605205
0.225038
0.225038
0.22503
0.224986
0.600467
0.805362
0.604411
0.223148
0.224706
0.288817
0.210617
0.0814871
0.108864
0.28887
0.109106
0.068278
0.0722482
0.25803
0.244393
0.166191
0.162325
0.0891644
0.031616
0.223671
0.172327
0.145906
0.09079
0.0885301
0.0300178
0.247372
0.161092
0.0762185
0.213402
0.170023
)
;
    }
}


// ************************************************************************* //
