/*--------------------------------*- C++ -*----------------------------------*\
  =========                 |
  \\      /  F ield         | OpenFOAM: The Open Source CFD Toolbox
   \\    /   O peration     | Website:  https://openfoam.org
    \\  /    A nd           | Version:  12
     \\/     M anipulation  |
\*---------------------------------------------------------------------------*/
FoamFile
{
    format      ascii;
    class       volScalarField;
    location    "5";
    object      p;
}
// * * * * * * * * * * * * * * * * * * * * * * * * * * * * * * * * * * * * * //

dimensions      [0 2 -2 0 0 0 0];

internalField   nonuniform List<scalar> 
364563
(
-846.16467
-687.7851
-515.93789
-385.72026
-282.69071
-195.18391
-118.3549
-49.704885
12.459317
69.393996
122.0558
171.18813
217.38109
261.11115
302.7707
342.68807
381.14277
418.37521
454.59534
489.98974
524.72704
558.96292
592.84263
626.50444
660.08249
693.70998
727.52214
761.65907
796.26869
831.51006
867.55723
904.60384
942.86874
982.60306
1024.0994
1067.704
1113.8328
1162.9935
1215.817
1273.1033
1335.8892
1405.551
1483.964
1573.759
1678.7645
1804.8978
1962.2075
2169.923
2465.9665
2951.3096
-846.22639
-687.81772
-515.9628
-385.74359
-282.7127
-195.20472
-118.37449
-49.723535
12.441495
69.37695
122.0395
171.17273
217.36651
261.09746
302.75783
342.67611
381.13157
418.36468
454.58546
489.98047
524.71851
558.95497
592.83513
626.49719
660.07539
693.703
727.51528
761.65236
796.26215
831.50372
867.55109
904.59792
942.86304
982.5976
1024.0942
1067.6991
1113.8281
1162.9891
1215.813
1273.0996
1335.8857
1405.5479
1483.9613
1573.7567
1678.7627
1804.8966
1962.2071
2169.9238
2465.969
2951.3151
-846.28638
-687.86173
-515.99822
-385.77481
-282.74125
-195.23131
-118.39953
-49.747328
12.418762
69.355232
122.01885
171.15323
217.34817
261.08031
302.74188
342.66138
381.11797
418.3521
454.57386
489.96991
524.70902
558.94645
592.82737
626.48998
660.06859
693.69655
727.5092
761.64667
796.25687
831.49885
867.54665
904.5939
942.85946
982.59447
1024.0915
1067.6969
1113.8264
1162.9879
1215.8122
1273.0993
1335.886
1405.5487
1483.9625
1573.7586
1678.7652
1804.8997
1962.2109
2169.9286
2465.9751
2951.3235
-846.37325
-687.92751
-516.05219
-385.82268
-282.78515
-195.27228
-118.43818
-49.78406
12.383699
69.321766
121.98703
171.12311
217.31977
261.05364
302.717
342.63829
381.09658
418.3323
454.55561
489.95324
524.69394
558.93281
592.81493
626.4785
660.05789
693.68656
727.49989
761.63803
796.2489
831.49156
867.54003
904.58796
942.85418
982.58986
1024.0876
1067.6936
1113.8238
1162.986
1215.811
1273.0987
1335.8861
1405.5495
1483.964
1573.7607
1678.768
1804.9033
1962.2154
2169.934
2465.9819
2951.3324
-846.48026
-688.01286
-516.12412
-385.88725
-282.8448
-195.32823
-118.49115
-49.834513
12.335505
69.275733
121.94317
171.08146
217.28036
261.01648
302.68213
342.60572
381.06626
418.30414
454.52957
489.92932
524.67209
558.91287
592.79668
626.46169
660.04233
693.67214
727.48653
761.62569
796.23756
831.48117
867.53058
904.57942
942.84654
982.58309
1024.0817
1067.6886
1113.8196
1162.9826
1215.8084
1273.0969
1335.885
1405.5491
1483.9644
1573.7618
1678.7699
1804.9059
1962.2188
2169.9383
2465.9872
2951.3396
-846.60708
-688.11749
-516.21416
-385.96898
-282.9209
-195.40002
-118.55941
-49.899696
12.273131
69.216053
121.88617
171.02715
217.22876
260.96763
302.63604
342.56241
381.02572
418.26632
454.49443
489.89682
524.64215
558.88535
592.77134
626.43832
660.02073
693.65214
727.46803
761.6086
796.2218
831.46668
867.5173
904.5673
942.83554
982.57317
1024.0728
1067.6807
1113.8127
1162.9765
1215.8032
1273.0925
1335.8814
1405.5462
1483.9622
1573.7602
1678.7689
1804.9055
1962.2189
2169.9391
2465.989
2951.3429
-846.75398
-688.24153
-516.32269
-386.06847
-283.01415
-195.48846
-118.64383
-49.980559
12.195565
69.141662
121.81492
170.95905
217.16383
260.90588
302.57751
342.50714
380.9737
418.21754
454.44887
489.85442
524.60282
558.84894
592.73765
626.40711
659.99181
693.62532
727.44315
761.58553
796.20043
831.4469
867.49902
904.55043
942.81999
982.55888
1024.0597
1067.6687
1113.8017
1162.9665
1215.794
1273.0841
1335.8736
1405.539
1483.9555
1573.754
1678.7631
1804.9001
1962.214
2169.9347
2465.9854
2951.3411
-846.92137
-688.38537
-516.45019
-386.18629
-283.12525
-195.59432
-118.74525
-50.078002
12.101845
69.051543
121.72836
170.87606
217.08442
260.83009
302.50538
342.4387
380.90899
418.15656
454.3916
489.80082
524.55278
558.80232
592.69426
626.36674
659.95422
693.59032
727.41055
761.55515
796.17211
831.4205
867.47439
904.52745
942.79855
982.53884
1024.0409
1067.6511
1113.7851
1162.9508
1215.7791
1273.0698
1335.8599
1405.5258
1483.9426
1573.7414
1678.7507
1804.8878
1962.2019
2169.9231
2465.9746
2951.3324
-847.10971
-688.54947
-516.59722
-386.3231
-283.2549
-195.71833
-118.86446
-50.192881
11.991056
68.944726
121.62548
170.77712
216.98945
260.73913
302.41849
342.35593
380.83037
418.08213
454.32135
489.7347
524.49071
558.74415
592.63981
626.31579
659.90655
693.5457
727.36876
761.51598
796.13536
831.38599
867.44193
904.49687
942.76967
982.51149
1024.015
1067.6263
1113.7613
1162.9278
1215.7568
1273.048
1335.8385
1405.5046
1483.9215
1573.7204
1678.7296
1804.8668
1962.1809
2169.9025
2465.9549
2951.315
-847.31945
-688.73434
-516.76438
-386.47954
-283.40379
-195.86124
-119.00226
-50.326027
11.862312
68.820272
121.50528
170.6612
216.87785
260.63191
302.31571
342.25764
380.73664
417.99299
454.23682
489.65474
524.41524
558.67303
592.57285
626.25279
659.84727
693.48991
727.31622
761.46645
796.0886
831.34176
867.40001
904.45703
942.73168
982.47514
1023.98
1067.5925
1113.7285
1162.8958
1215.7252
1273.0168
1335.8074
1405.4735
1483.8904
1573.6891
1678.6981
1804.8351
1962.1492
2169.871
2465.9243
2951.2868
-847.55102
-688.94051
-516.95225
-386.65625
-283.57259
-196.02378
-119.15939
-50.478248
11.714757
68.677275
121.36682
170.52731
216.74858
260.50733
302.1959
342.14269
380.6266
417.88791
454.13671
489.55958
524.32495
558.58749
592.49189
626.1762
659.77483
693.42135
727.25129
761.40488
796.03012
831.28609
867.34688
904.40616
942.6828
982.42795
1023.9342
1067.5479
1113.6847
1162.8526
1215.6825
1272.9742
1335.7648
1405.4307
1483.8473
1573.6456
1678.6542
1804.7909
1962.1048
2169.8269
2465.8811
2951.246
-847.80479
-689.16842
-517.16138
-386.85385
-283.76198
-196.20662
-119.33661
-50.650323
11.547567
68.514864
121.20918
170.37447
216.60062
260.36434
302.05798
342.00992
380.49906
417.76564
454.01972
489.44787
524.21844
558.48608
592.39541
626.08446
659.68759
693.33836
727.17227
761.32954
795.95815
831.21718
867.28072
904.34241
942.62113
982.36804
1023.8757
1067.4905
1113.6281
1162.7965
1215.6266
1272.9184
1335.7087
1405.3743
1483.7903
1573.5881
1678.5962
1804.7324
1962.0462
2169.7685
2465.8235
2951.1907
-848.08101
-689.41847
-517.39227
-387.07287
-283.97254
-196.41043
-119.53459
-50.842982
11.359967
68.332218
121.03148
170.20176
216.433
260.20192
301.90086
341.85821
380.35283
417.62495
453.88459
489.31826
524.09431
558.36731
592.28187
625.97596
659.58391
693.23924
727.07742
761.23865
795.87088
831.13319
867.19963
904.26386
942.54475
982.29344
1023.8026
1067.4184
1113.5567
1162.7255
1215.5557
1272.8473
1335.6373
1405.3023
1483.7178
1573.5149
1678.5223
1804.658
1961.9715
2169.694
2465.7499
2951.1194
-848.37981
-689.69093
-517.64529
-387.3138
-284.2048
-196.63576
-119.75395
-51.056891
11.151245
68.128579
120.83292
170.00835
216.24483
260.01911
301.72354
341.68648
380.1868
417.46466
453.73006
489.16947
523.9512
558.22978
592.1498
625.84917
659.46219
693.12234
726.96503
761.13045
795.7665
831.03226
867.10175
904.16862
942.45173
982.20225
1023.7128
1067.3296
1113.4687
1162.6377
1215.4679
1272.7592
1335.5487
1405.2132
1483.6279
1573.4242
1678.431
1804.5661
1961.8793
2169.602
2465.6587
2951.0306
-848.70119
-689.98595
-517.92073
-387.57698
-284.45919
-196.88311
-119.99523
-51.292627
10.92078
67.90328
120.61279
169.79346
216.03529
259.81505
301.52509
341.49376
379.99991
417.28366
453.55497
489.00028
523.78784
558.07217
591.9978
625.70263
659.32091
692.98606
726.83345
761.00323
795.64327
830.91261
866.98525
904.05485
942.34025
982.09261
1023.6046
1067.2224
1113.3621
1162.5314
1215.3615
1272.6525
1335.4415
1405.1052
1483.5191
1573.3147
1678.3207
1804.4553
1961.7682
2169.4911
2465.5487
2950.9228
-849.04497
-690.30353
-518.21872
-387.86266
-284.736
-197.15284
-120.25883
-51.550653
10.668063
67.655767
120.37049
169.55644
215.80368
259.58898
301.3047
341.27918
379.79122
417.08095
453.35826
488.80955
523.60305
557.89324
591.82461
625.53501
659.15866
692.82893
726.68116
760.85541
795.49955
830.77257
866.84845
903.92084
942.20857
981.96281
1023.4762
1067.095
1113.2353
1162.4049
1215.2349
1272.5256
1335.3139
1404.977
1483.3901
1573.1849
1678.1902
1804.3243
1961.6371
2169.3603
2465.4188
2950.795
-849.41081
-690.64351
-518.53925
-388.17091
-285.03541
-197.44516
-120.54505
-51.831293
10.392724
67.385628
120.10556
169.2968
215.54945
259.3403
301.06171
341.04201
379.55998
416.85569
453.13902
488.59633
523.39581
557.6919
591.62907
625.34511
658.9742
692.64966
726.50678
760.68558
795.33388
830.61063
866.68982
903.76504
942.05516
981.81132
1023.3262
1066.9461
1113.087
1162.2568
1215.0868
1272.3771
1335.1649
1404.8273
1483.2397
1573.0337
1678.0385
1804.1722
1961.485
2169.2085
2465.268
2950.6463
-849.79817
-691.00552
-518.88212
-388.50166
-285.35741
-197.76015
-120.85398
-52.134712
10.094557
67.092616
119.81771
169.01421
215.27223
259.0686
300.79566
340.78173
379.30556
416.60722
452.89653
488.35982
523.16526
557.46725
591.41021
625.13191
658.76646
692.44713
726.30916
760.49253
795.14502
830.42554
866.50807
903.58618
941.87872
981.63686
1023.1533
1066.7742
1112.9158
1162.086
1214.916
1272.206
1334.9934
1404.6551
1483.0669
1572.8604
1677.8647
1803.9982
1961.3111
2169.0354
2465.096
2950.4763
-850.20627
-691.38902
-519.24696
-388.85463
-285.70181
-198.09768
-121.18558
-52.460884
9.7735462
66.776676
119.50686
168.70853
214.97184
258.77363
300.50625
340.49799
379.02759
416.33508
452.63026
488.09944
522.91075
557.21856
591.16726
624.89457
658.53453
692.2204
726.08733
760.27527
794.93195
830.21627
866.30216
903.3832
941.67823
981.4384
1022.9564
1066.5786
1112.7209
1161.8915
1214.7216
1272.0115
1334.7985
1404.4599
1482.8712
1572.6642
1677.6683
1803.8019
1961.1153
2168.8405
2464.9026
2950.2852
-850.63407
-691.79319
-519.63315
-389.22935
-286.06823
-198.45742
-121.53954
-52.809577
9.4298844
66.437962
119.17311
168.37983
214.64831
258.45539
300.19341
340.19067
378.72588
416.03903
452.33993
487.81483
522.63187
556.94537
590.89969
624.63249
658.27779
691.96877
725.84055
760.03303
794.6939
829.98203
866.07132
903.15535
941.45293
981.21523
1022.7349
1066.3584
1112.5017
1161.6728
1214.5031
1271.793
1334.5799
1404.2409
1482.652
1572.4448
1677.4489
1803.5828
1960.8971
2168.6238
2464.6881
2950.0739
-851.08023
-692.21698
-520.03985
-389.62511
-286.45602
-198.83881
-121.91538
-53.180321
9.0640015
66.076865
118.81682
168.02843
214.3019
258.11409
299.85732
339.85989
378.40049
415.71909
452.02548
487.5059
522.32845
556.64745
590.6072
624.34535
657.99584
691.69183
725.56837
759.76534
794.43039
829.72234
865.81508
902.90215
941.20237
980.9669
1022.4884
1066.1133
1112.2576
1161.4295
1214.2603
1271.5504
1334.3373
1403.9982
1482.4092
1572.202
1677.2064
1803.3409
1960.6563
2168.385
2464.452
2949.842
-851.5431
-692.65904
-520.46595
-390.04091
-286.86432
-199.24102
-122.3123
-53.572389
8.6765815
65.694026
118.43859
167.65487
213.93311
257.75017
299.49838
339.50601
378.05173
415.37551
451.68712
487.1728
522.00062
556.32487
590.28984
624.03311
657.68863
691.38947
725.27068
759.47207
794.14125
829.43703
865.53326
902.62346
940.92642
980.69331
1022.2168
1065.8433
1111.9889
1161.1617
1213.9931
1271.2836
1334.0707
1403.7318
1482.1429
1571.9361
1676.9409
1803.0763
1960.3932
2168.1241
2464.1942
2949.5888
-852.0207
-693.11772
-520.91003
-390.47551
-287.29193
-199.66295
-122.72927
-53.984777
8.2685834
65.29036
118.03928
167.25997
213.54272
257.36437
299.11726
339.12964
377.68017
415.00883
451.32536
486.81599
521.64877
555.97799
589.9479
623.69607
657.3564
691.06193
724.94767
759.15339
793.82668
829.1263
865.22606
902.31947
940.6253
980.39469
1021.9203
1065.5486
1111.6956
1160.8696
1213.7019
1270.993
1333.7807
1403.4422
1481.8537
1571.6473
1676.6529
1802.7895
1960.1081
2167.8414
2463.9148
2949.3143
-852.5107
-693.59106
-521.37038
-390.92731
-287.73738
-200.10319
-123.16492
-54.416188
7.841253
64.867061
117.62003
166.84483
213.13176
256.95768
298.7149
338.73169
377.28669
414.61987
450.94097
486.43621
521.27364
555.60751
589.58207
623.33486
656.99976
690.70978
724.59991
758.80987
793.48721
828.79067
864.89402
901.99073
940.29956
980.07162
1021.5996
1065.2299
1111.3786
1160.554
1213.3874
1270.6794
1333.4678
1403.13
1481.5422
1571.3366
1676.3432
1802.4812
1959.8017
2167.5377
2463.6144
2949.0188
-853.01049
-694.07678
-521.84498
-391.39446
-288.1989
-200.56003
-123.61762
-54.865029
7.3961308
64.425616
117.18228
166.41083
212.70157
256.53137
298.29255
338.31336
376.87245
414.20977
450.53507
486.03455
520.87626
555.21444
589.19334
622.95047
656.61968
690.33399
724.22833
758.44242
793.12376
828.43105
864.53804
901.63815
939.95012
979.72504
1021.2556
1064.8881
1111.0388
1160.2158
1213.0506
1270.3438
1333.1333
1402.7964
1481.2095
1571.005
1676.0128
1802.1523
1959.475
2167.2137
2463.294
2948.703
-853.5172
-694.57234
-522.33151
-391.87477
-288.6744
-201.03147
-124.08541
-55.329413
6.9350481
63.967802
116.72775
165.95963
212.25377
256.08703
297.85175
337.87616
376.43892
413.77998
450.10908
485.61241
520.45803
554.80017
588.78306
622.54422
656.21749
689.93586
723.83425
758.05234
792.73761
828.04873
864.1594
901.26301
939.57826
979.35621
1020.8895
1064.5245
1110.6774
1159.8563
1212.6928
1269.9875
1332.7783
1402.4426
1480.8569
1570.6537
1675.663
1801.8044
1959.1293
2166.8708
2462.9545
2948.368
-854.02772
-695.07495
-522.8274
-392.36579
-289.16152
-201.51522
-124.56608
-55.807173
6.4601171
63.495682
116.25846
165.49322
211.79029
255.62656
297.39435
337.42192
375.98792
413.33229
449.66476
485.17155
520.02068
554.36641
588.35296
622.11784
655.79489
689.51708
723.41933
757.6413
792.33043
827.64535
863.75973
900.86693
939.18559
978.96676
1020.503
1064.1407
1110.2961
1159.4772
1212.3157
1269.6122
1332.4045
1402.0704
1480.4861
1570.2844
1675.2955
1801.4388
1958.7661
2166.5105
2462.5975
2948.0152
-854.53885
-695.58163
-523.32984
-392.86485
-289.65767
-202.00874
-125.05716
-56.295892
5.9737084
63.011581
115.77669
165.01383
211.31335
255.15213
296.92253
336.95278
375.52155
412.86878
449.2042
484.71403
519.56628
553.91523
587.90508
621.67337
655.35392
689.07971
722.98562
757.21132
791.90422
827.22291
863.34103
900.4519
938.7741
978.55865
1020.0981
1063.7388
1109.8968
1159.0804
1211.9211
1269.2196
1332.0138
1401.6815
1480.099
1569.8991
1674.9121
1801.0576
1958.3873
2166.1346
2462.2248
2947.6463
-855.04727
-696.08927
-523.83587
-393.36905
-290.16004
-202.5093
-125.55594
-56.792925
5.4784246
62.518065
115.28498
164.52398
210.82543
254.66623
296.43872
336.47117
375.04225
412.39188
448.72981
484.24225
519.09723
553.44902
587.44183
621.21321
654.89698
688.62612
722.53551
756.76479
791.46137
826.78379
862.90567
900.02025
938.3461
978.13417
1019.677
1063.3208
1109.4818
1158.6681
1211.5113
1268.8121
1331.6085
1401.2782
1479.6977
1569.4998
1674.5149
1800.6627
1957.9949
2165.745
2461.8383
2947.2633
-855.54962
-696.59464
-524.34237
-393.87538
-290.66566
-203.01398
-126.05957
-57.295442
4.9770655
62.017911
114.78609
164.02641
210.32926
254.17155
295.94565
335.97981
374.5527
411.90428
448.24428
483.75891
518.61622
552.97047
586.96591
620.74007
654.42678
688.15904
722.07172
756.30444
791.00458
826.33069
862.4563
899.57465
937.90423
977.69593
1019.2422
1062.8894
1109.0535
1158.2428
1211.0887
1268.3921
1331.1908
1400.8628
1479.2846
1569.089
1674.1063
1800.2565
1957.5913
2165.3441
2461.4402
2946.8681
-856.04257
-697.09448
-524.84615
-394.38071
-291.17146
-203.51975
-126.56504
-57.800461
4.4725941
61.514067
114.28295
163.52406
209.82778
253.67106
295.44624
335.48162
374.05587
411.40893
447.75056
483.26697
518.12622
552.48258
586.48031
620.25694
653.94634
687.68149
721.59726
755.83327
790.53689
825.8666
861.99594
899.11806
937.45142
977.24684
1018.7968
1062.4474
1108.6148
1157.8072
1210.6561
1267.9623
1330.7637
1400.4382
1478.8624
1568.6692
1673.689
1799.8416
1957.179
2164.9344
2461.033
2946.4634
-856.52282
-697.58553
-525.34399
-394.88183
-291.67427
-204.02346
-127.06923
-58.304882
3.9681011
61.009622
113.77865
163.02002
209.3241
253.16785
294.94364
334.97976
373.55489
410.909
447.25183
482.76963
517.63044
551.98857
585.98827
619.7671
653.45894
687.19675
721.11544
755.35459
790.06156
825.39482
861.52783
898.65372
936.99087
976.79007
1018.3437
1061.9979
1108.1688
1157.3645
1210.2165
1267.5256
1330.3298
1400.0071
1478.4339
1568.2433
1673.2657
1799.4209
1956.7607
2164.5185
2460.6193
2946.0516
-856.98714
-698.06454
-525.83265
-395.37552
-292.17088
-204.52192
-127.56895
-58.805523
3.4667744
60.507774
113.27642
162.51752
208.82146
252.6652
294.44112
334.47752
373.0531
410.40784
446.75148
482.27028
517.13232
551.49188
585.49327
619.27403
652.96806
686.70834
720.62976
754.87192
789.58213
824.91882
861.05545
898.18506
936.52599
976.32897
1017.8863
1061.5442
1107.7186
1156.9177
1209.773
1267.0853
1329.8925
1399.5726
1478.0023
1567.8144
1672.8394
1798.9971
1956.3394
2164.0994
2460.2021
2945.6357
-857.4324
-698.52833
-526.30891
-395.85856
-292.65806
-205.01191
-128.06098
-59.299139
2.9718699
60.011796
112.77954
162.01988
208.32321
252.16648
293.9421
333.97836
372.55398
409.90894
446.25303
481.7725
516.63543
550.99615
584.99894
618.7814
652.47741
686.21996
720.14394
754.38894
789.10226
824.44229
860.58243
897.71569
936.06035
975.86709
1017.4282
1061.0898
1107.2678
1156.4704
1209.329
1266.6446
1329.455
1399.1381
1477.5707
1567.3856
1672.4133
1798.5736
1955.9181
2163.6801
2459.7842
2945.2184
-857.85561
-698.97382
-526.76961
-396.32776
-293.13261
-205.49018
-128.54206
-59.782459
2.4866851
59.525012
112.29136
161.53049
207.83277
251.67516
293.45006
333.48579
372.06109
409.41594
445.76014
481.27996
516.14351
550.50512
584.50909
618.29302
651.99079
685.73543
719.66181
753.9095
788.62577
823.96901
860.11255
897.24935
935.59766
975.4081
1016.9729
1060.6382
1106.8198
1156.0259
1208.8881
1266.207
1329.0206
1398.7069
1477.1425
1566.9603
1671.9907
1798.1534
1955.5
2163.2637
2459.3689
2944.8031
-858.25397
-699.39804
-527.21169
-396.77998
-293.59134
-205.95354
-129.00895
-60.252206
2.01453
59.050769
111.81528
161.05277
207.3536
251.19473
292.96856
333.00343
371.57807
408.93251
445.27654
480.79646
515.66038
550.02265
584.02758
617.81277
651.51213
685.25867
719.18727
753.43747
788.15655
823.50283
859.64962
896.78983
935.14167
974.9557
1016.5242
1060.193
1106.3783
1155.588
1208.4536
1265.776
1328.5929
1398.2824
1476.7211
1566.5418
1671.5748
1797.7399
1955.0885
2162.8535
2458.9593
2944.3927
-858.62489
-699.79822
-527.63221
-397.2122
-294.03116
-206.39882
-129.45845
-60.705132
1.5586974
58.592405
111.35467
160.59015
206.88919
250.72873
292.50119
332.5349
371.10863
408.46239
444.80602
480.32582
515.1899
549.55263
583.55833
617.3446
651.04537
684.79363
718.72427
752.97681
787.69851
823.04765
859.19751
896.34097
934.69617
974.51368
1016.0857
1059.7581
1105.947
1155.1602
1208.0294
1265.3552
1328.1755
1397.8682
1476.31
1566.1335
1671.1692
1797.3365
1954.6868
2162.4529
2458.5587
2943.9906
-858.96604
-700.17177
-528.02841
-397.62151
-294.44907
-206.82297
-129.88743
-61.138056
1.1224267
58.153214
110.91288
160.14604
206.44299
250.28068
292.05151
332.08384
370.65643
408.00932
444.35236
479.87185
514.73593
549.09895
583.10525
616.89245
650.59444
684.34425
718.27674
752.53143
787.25554
822.60734
858.76007
895.90658
934.26499
974.08581
1015.6612
1059.3371
1105.5295
1154.7463
1207.6189
1264.9481
1327.7718
1397.4678
1475.9126
1565.739
1670.7771
1796.9465
1954.2983
2162.065
2458.1705
2943.6002
-859.27542
-700.51639
-528.39772
-398.0052
-294.84226
-207.22306
-130.29288
-61.547894
0.70886921
57.736415
110.49321
159.72379
206.01843
249.85405
291.62306
331.65383
370.22512
407.577
443.9193
479.43835
514.30228
548.66546
582.67222
616.46018
650.16324
683.91442
717.84856
752.10519
786.8315
822.18574
858.34112
895.49047
933.85188
973.67585
1015.2545
1058.9338
1105.1295
1154.3497
1207.2258
1264.5584
1327.3854
1397.0846
1475.5324
1565.3615
1670.4021
1796.5734
1953.9264
2161.6933
2457.7979
2943.2246
-859.55138
-700.83006
-528.73785
-398.36079
-295.20809
-207.59634
-130.67196
-61.931707
0.32105094
57.345113
110.09882
159.32664
205.6188
249.45222
291.21929
331.24837
369.81827
407.16902
443.51049
479.029
513.89268
548.25591
582.263
616.05158
649.75555
683.50792
717.44353
751.70189
786.43017
821.78662
857.94442
895.09638
933.46058
973.28749
1014.8692
1058.5517
1104.7507
1153.9742
1206.8537
1264.1896
1327.0199
1396.7221
1475.1729
1565.0046
1670.0475
1796.2204
1953.5743
2161.3411
2457.4443
2942.8673
-859.79267
-701.11113
-529.0468
-398.68605
-295.54415
-207.94028
-131.02201
-62.286723
-0.038161371
56.982265
109.73276
158.95771
205.24732
249.07845
290.84351
330.87086
369.4393
406.78888
443.12945
478.64735
513.51071
547.87389
581.88121
615.67029
649.37502
683.12841
717.0653
751.32518
786.05521
821.41363
857.57362
894.72796
933.09473
972.92437
1014.509
1058.1944
1104.3966
1153.6233
1206.5059
1263.8451
1326.6785
1396.3838
1474.8373
1564.6716
1669.7165
1795.8909
1953.2454
2161.0116
2457.1128
2942.5314
-859.99851
-701.35834
-529.32291
-398.97904
-295.84832
-208.25257
-131.34058
-62.610383
-0.36609688
56.650639
109.39789
158.61996
204.90699
248.73583
290.49888
330.5245
369.09147
406.43986
442.77952
478.29677
513.15976
547.52282
581.53027
615.31974
649.0251
682.77936
716.71734
750.97854
785.71012
821.07029
857.23222
894.38871
932.75781
972.58996
1014.1773
1057.8655
1104.0706
1153.3003
1206.186
1263.5282
1326.3646
1396.0727
1474.5289
1564.3655
1669.4122
1795.5878
1952.9426
2160.7078
2456.8066
2942.22
-860.16864
-701.57085
-529.56488
-399.23816
-296.11876
-208.53119
-131.6255
-62.900369
-0.66032016
56.352777
109.09684
158.31609
204.60061
248.42723
290.18832
330.21225
368.77779
406.12502
442.46378
477.98038
512.84295
547.20585
581.21337
615.00313
648.709
682.46399
716.40291
750.66524
785.39815
820.75985
856.92352
894.08193
932.45313
972.28757
1013.8773
1057.5682
1103.776
1153.0085
1205.897
1263.2421
1326.0813
1395.7921
1474.2507
1564.0894
1669.1377
1795.3143
1952.669
2160.4329
2456.5287
2941.9363
-860.30343
-701.74838
-529.77188
-399.46219
-296.35397
-208.77444
-131.87487
-63.154654
-0.91867969
56.090938
108.83197
158.04854
204.33069
248.15521
289.91446
329.9368
368.501
405.84712
442.18501
477.70097
512.56314
546.92584
580.93337
614.72335
648.42964
682.18522
716.12493
750.38824
785.1223
820.48534
856.65052
893.81062
932.1837
972.02018
1013.6121
1057.3054
1103.5156
1152.7507
1205.6419
1262.9896
1325.8313
1395.5446
1474.0054
1563.846
1668.8957
1795.0729
1952.4273
2160.1894
2456.2818
2941.683
-860.40401
-701.89126
-529.94353
-399.65033
-296.55284
-208.98096
-132.08718
-63.371551
-1.1393621
55.867042
108.60529
157.81941
204.09939
247.922
289.67957
329.70046
368.26343
405.60854
441.94563
477.461
512.32277
546.68526
580.69278
614.48291
648.18953
681.94562
715.88599
750.15012
784.88517
820.24936
856.41585
893.57743
931.95216
971.79045
1013.3844
1057.0797
1103.2922
1152.5296
1205.4231
1262.7732
1325.6172
1395.3326
1473.7954
1563.6376
1668.6885
1794.8661
1952.2199
2159.9799
2456.0685
2941.4628
-860.47257
-702.00054
-530.08004
-399.80225
-296.7147
-209.14982
-132.26128
-63.549776
-1.320959
55.682598
108.41838
157.63035
203.90844
247.72937
289.48548
329.5051
368.067
405.41122
441.7476
477.26244
512.12385
546.48615
580.49363
614.28388
647.99077
681.74727
715.6882
749.95303
784.68892
820.05408
856.22169
893.38455
931.76068
971.60054
1013.1961
1056.8933
1103.1077
1152.3472
1205.2428
1262.5949
1325.441
1395.1583
1473.6228
1563.4664
1668.5181
1794.6959
1952.0488
2159.8066
2455.8911
2941.2779
-860.51296
-702.07819
-530.18222
-399.91817
-296.83937
-209.28057
-132.39654
-63.688529
-1.4625538
55.538618
108.27235
157.48253
203.75904
247.57859
289.33349
329.35206
367.91306
405.25655
441.59234
477.10674
511.96784
546.32997
580.33742
614.12777
647.83488
681.59172
715.53311
749.79852
784.53511
819.90108
856.06963
893.23355
931.61087
971.45204
1013.0491
1056.7478
1102.9638
1152.205
1205.1023
1262.4562
1325.304
1395.0229
1473.4888
1563.3335
1668.3859
1794.5637
1951.9157
2159.671
2455.7512
2941.1304
-860.53353
-702.12727
-530.25156
-399.99889
-296.92722
-209.37331
-132.49284
-63.787563
-1.5637908
55.43554
108.1677
157.37651
203.65181
247.4703
289.22428
329.24205
367.80237
405.14529
441.48063
476.99468
511.85555
546.21756
580.22499
614.01542
647.72271
681.47984
715.42161
749.68749
784.42464
819.79127
855.96057
893.12533
931.5036
971.34581
1012.944
1056.6439
1102.8613
1152.1038
1205.0026
1262.3579
1325.207
1394.9273
1473.3943
1563.2399
1668.2928
1794.4704
1951.8214
2159.5743
2455.6505
2941.0218
-860.54178
-702.15251
-530.29075
-400.04617
-296.97949
-209.42894
-132.55087
-63.847441
-1.6251443
55.372958
108.10407
157.31196
203.58647
247.40426
289.15762
329.17486
367.73473
405.07727
441.4123
476.92613
511.78686
546.14879
580.15622
613.94673
647.65417
681.41152
715.35358
749.61982
784.35739
819.72451
855.89437
893.05975
931.43872
971.28169
1012.8807
1056.5815
1102.7999
1152.0434
1204.9432
1262.2995
1325.1497
1394.8709
1473.3388
1563.185
1668.2382
1794.4157
1951.7657
2159.5167
2455.5893
2940.9539
-860.51464
-702.15104
-530.29897
-400.05802
-296.99354
-209.44453
-132.5676
-63.865021
-1.6434056
55.354137
108.08477
157.29227
203.56644
247.38395
289.13708
329.15413
367.71385
405.05628
441.39125
476.90506
511.76581
546.12781
580.13537
613.92605
647.63372
681.39134
715.33372
749.60032
784.3383
819.70587
855.87622
893.04213
931.42167
971.26526
1012.8649
1056.5665
1102.7856
1152.0299
1204.9305
1262.2877
1325.1386
1394.8606
1473.3291
1563.1757
1668.229
1794.4061
1951.7551
2159.5037
2455.5723
2940.9298
-710.32298
-622.26971
-484.99497
-369.19868
-272.26831
-187.68566
-112.55665
-45.091935
16.187634
72.449046
124.58799
173.30573
219.16354
262.61813
304.04715
343.76893
382.05506
419.14004
455.22932
490.50554
525.13452
559.26896
593.05191
626.61955
660.10413
693.63698
727.35134
761.38518
795.88402
831.00419
866.91651
903.8107
941.90067
981.43119
1022.6865
1066.0015
1111.7771
1160.4992
1212.7671
1269.3338
1331.1658
1399.532
1476.1333
1563.2994
1664.3113
1783.7387
1928.1002
2107.1929
2333.8578
2657.669
-710.34467
-622.28175
-485.01234
-369.21786
-272.28727
-187.70376
-112.57385
-45.108342
16.171946
72.433995
124.57368
173.29217
219.15079
262.60614
304.036
343.75858
382.04544
419.13107
455.22089
490.49774
525.12731
559.26229
593.04565
626.61354
660.09828
693.63125
727.34574
761.37972
795.87873
830.9991
866.91162
903.80602
941.8962
981.42695
1022.6825
1065.9978
1111.7736
1160.496
1212.7642
1269.3311
1331.1635
1399.53
1476.1317
1563.2981
1664.3105
1783.7384
1928.1005
2107.194
2333.8601
2657.6738
-710.39729
-622.32177
-485.04632
-369.2485
-272.31556
-187.73024
-112.59885
-45.132112
16.149251
72.412328
124.5531
173.27273
219.13252
262.58907
304.02016
343.74399
382.03201
419.11871
455.20954
490.48744
525.11811
559.25409
593.03825
626.60674
660.09193
693.62528
727.34014
761.37451
795.87392
830.9947
866.90764
903.80246
941.89309
981.42427
1022.6802
1065.996
1111.7723
1160.4951
1212.7638
1269.3313
1331.1641
1399.5311
1476.1333
1563.3003
1664.3132
1783.7416
1928.1042
2107.1983
2333.8651
2657.6804
-710.46903
-622.37949
-485.0971
-369.29489
-272.35862
-187.77064
-112.63707
-45.16847
16.114547
72.379212
124.52161
173.24293
219.10446
262.56276
303.99564
343.72128
382.01104
419.09937
455.19178
490.47129
525.10354
559.24099
593.0264
626.59589
660.0819
693.61598
727.33153
761.36657
795.86666
830.9881
866.90171
903.79719
941.88847
981.42032
1022.6769
1065.9934
1111.7703
1160.4938
1212.7632
1269.3312
1331.1647
1399.5324
1476.1352
1563.3029
1664.3164
1783.7454
1928.1085
2107.2032
2333.8707
2657.6874
-710.5606
-622.45597
-485.16506
-369.35746
-272.41705
-187.82574
-112.68937
-45.218328
16.066915
72.333725
124.47828
173.20181
219.06557
262.52614
303.96133
343.68929
381.98134
419.07187
455.16643
490.44807
525.08241
559.22181
593.00894
626.57992
660.06722
693.60245
727.31907
761.35513
795.85621
830.97861
866.89315
903.78953
941.88169
981.4144
1022.6719
1065.9891
1111.7669
1160.4912
1212.7613
1269.3302
1331.1644
1399.5327
1476.1362
1563.3046
1664.3187
1783.7483
1928.1119
2107.207
2333.875
2657.6926
-710.6718
-622.55129
-485.25066
-369.43685
-272.49167
-187.89647
-112.75677
-45.282752
16.005251
72.274732
124.42196
173.14818
219.01466
262.47798
303.91596
343.64673
381.94158
419.03487
455.13215
490.41646
525.05338
559.19522
592.98459
626.55757
660.04666
693.58352
727.30164
761.33911
795.84152
830.96519
866.88093
903.77846
941.87172
981.40549
1022.664
1065.9822
1111.7609
1160.4861
1212.757
1269.3266
1331.1616
1399.5306
1476.1348
1563.3037
1664.3183
1783.7483
1928.1122
2107.2076
2333.8759
2657.6941
-710.80272
-622.66566
-485.35437
-369.53372
-272.58326
-187.98369
-112.84019
-45.362736
15.928509
72.201139
124.3515
173.08087
218.95052
262.41705
303.85828
343.59233
381.89047
418.98705
455.08759
490.37509
525.01512
559.15991
592.95202
626.52752
660.01893
693.55791
727.27798
761.31727
795.82137
830.94662
866.86385
903.76278
941.85736
981.39236
1022.652
1065.9713
1111.751
1160.4771
1212.7488
1269.3192
1331.1547
1399.5243
1476.129
1563.2983
1664.3132
1783.7434
1928.1075
2107.2029
2333.8713
2657.6902
-710.95369
-622.79946
-485.47677
-369.64874
-272.69256
-188.08822
-112.94052
-45.459211
15.835696
72.111901
124.26582
172.99876
218.87202
262.34219
303.7871
343.52487
381.82677
418.92714
455.03143
490.32264
524.96627
559.11452
592.90989
626.48843
659.98265
693.52423
727.24672
761.28823
795.79439
830.92155
866.84054
903.74111
941.8372
981.37358
1022.6345
1065.9549
1111.7356
1160.4626
1212.7351
1269.306
1331.1421
1399.512
1476.117
1563.2865
1664.3015
1783.7317
1928.0957
2107.191
2333.8596
2657.6795
-711.12516
-622.95322
-485.61847
-369.7826
-272.8203
-188.21083
-113.05858
-45.573065
15.725869
72.00602
124.16387
172.90076
218.77802